TITLE = "B00006"
VARIABLES = "x", "y", "RMS Vy"
ZONE T="Frame 1" I=84, J=163, F=POINT
-7.223550 49.412601 0.000000
-6.908809 49.412601 0.000000
-6.594068 49.412601 0.000000
-6.279327 49.412601 0.000000
-5.964586 49.412601 0.000000
-5.649845 49.412601 0.000000
-5.335104 49.412601 0.000000
-5.020363 49.412601 0.000000
-4.705622 49.412601 0.000000
-4.390881 49.412601 0.000000
-4.076140 49.412601 0.000000
-3.761399 49.412601 0.000000
-3.446658 49.412601 0.000000
-3.131917 49.412601 0.000000
-2.817176 49.412601 0.000000
-2.502435 49.412601 0.000000
-2.187694 49.412601 0.000000
-1.872953 49.412601 0.000000
-1.558212 49.412601 0.000000
-1.243471 49.412601 0.000000
-0.928730 49.412601 0.000000
-0.613989 49.412601 0.000000
-0.299248 49.412601 0.000000
0.015493 49.412601 0.000000
0.330234 49.412601 0.000000
0.644975 49.412601 0.000000
0.959716 49.412601 0.000000
1.274457 49.412601 0.000000
1.589198 49.412601 0.000000
1.903938 49.412601 0.000000
2.218679 49.412601 0.000000
2.533421 49.412601 0.000000
2.848162 49.412601 0.000000
3.162903 49.412601 0.000000
3.477644 49.412601 0.000000
3.792385 49.412601 0.000000
4.107125 49.412601 0.000000
4.421866 49.412601 0.000000
4.736608 49.412601 0.000000
5.051349 49.412601 0.000000
5.366090 49.412601 0.000000
5.680831 49.412601 0.000000
5.995571 49.412601 0.000000
6.310312 49.412601 0.000000
6.625053 49.412601 0.000000
6.939795 49.412601 0.000000
7.254536 49.412601 0.000000
7.569277 49.412601 0.000000
7.884017 49.412601 0.000000
8.198758 49.412601 0.000000
8.513499 49.412601 0.000000
8.828240 49.412601 0.000000
9.142982 49.412601 0.000000
9.457723 49.412601 0.000000
9.772464 49.412601 0.000000
10.087205 49.412601 0.000000
10.401946 49.412601 0.000000
10.716687 49.412601 0.000000
11.031426 49.412601 0.000000
11.346168 49.412601 0.000000
11.660909 49.412601 0.000000
11.975650 49.412601 0.000000
12.290391 49.412601 0.000000
12.605132 49.412601 0.000000
12.919873 49.412601 0.000000
13.234614 49.412601 0.000000
13.549356 49.412601 0.000000
13.864097 49.412601 0.000000
14.178838 49.412601 0.000000
14.493579 49.412601 0.000000
14.808320 49.412601 0.000000
15.123059 49.412601 0.000000
15.437800 49.412601 0.000000
15.752542 49.412601 0.000000
16.067284 49.412601 0.000000
16.382023 49.412601 0.000000
16.696766 49.412601 0.000000
17.011505 49.412601 0.000000
17.326248 49.412601 0.000000
17.640987 49.412601 0.000000
17.955730 49.412601 0.000000
18.270470 49.412601 0.000000
18.585213 49.412601 0.000000
18.899952 49.412601 0.000000
-7.223550 49.097862 0.000000
-6.908809 49.097862 0.000000
-6.594068 49.097862 0.000000
-6.279327 49.097862 0.000000
-5.964586 49.097862 0.000000
-5.649845 49.097862 0.000000
-5.335104 49.097862 0.000000
-5.020363 49.097862 0.000000
-4.705622 49.097862 0.000000
-4.390881 49.097862 0.000000
-4.076140 49.097862 0.000000
-3.761399 49.097862 0.000000
-3.446658 49.097862 0.000000
-3.131917 49.097862 0.000000
-2.817176 49.097862 0.000000
-2.502435 49.097862 0.000000
-2.187694 49.097862 0.000000
-1.872953 49.097862 0.000000
-1.558212 49.097862 0.000000
-1.243471 49.097862 0.000000
-0.928730 49.097862 0.000000
-0.613989 49.097862 0.000000
-0.299248 49.097862 0.000000
0.015493 49.097862 0.000000
0.330234 49.097862 0.000000
0.644975 49.097862 0.000000
0.959716 49.097862 0.000000
1.274457 49.097862 0.000000
1.589198 49.097862 0.000000
1.903938 49.097862 0.000000
2.218679 49.097862 0.000000
2.533421 49.097862 0.000000
2.848162 49.097862 0.000000
3.162903 49.097862 0.000000
3.477644 49.097862 0.000000
3.792385 49.097862 0.000000
4.107125 49.097862 0.000000
4.421866 49.097862 0.000000
4.736608 49.097862 0.000000
5.051349 49.097862 0.000000
5.366090 49.097862 0.000000
5.680831 49.097862 0.000000
5.995571 49.097862 0.000000
6.310312 49.097862 0.000000
6.625053 49.097862 0.000000
6.939795 49.097862 0.000000
7.254536 49.097862 0.000000
7.569277 49.097862 0.000000
7.884017 49.097862 0.000000
8.198758 49.097862 0.000000
8.513499 49.097862 0.000000
8.828240 49.097862 0.000000
9.142982 49.097862 0.000000
9.457723 49.097862 0.000000
9.772464 49.097862 0.000000
10.087205 49.097862 0.000000
10.401946 49.097862 0.000000
10.716687 49.097862 0.000000
11.031426 49.097862 0.000000
11.346168 49.097862 0.000000
11.660909 49.097862 0.000000
11.975650 49.097862 0.000000
12.290391 49.097862 0.000000
12.605132 49.097862 0.000000
12.919873 49.097862 0.000000
13.234614 49.097862 0.000000
13.549356 49.097862 0.000000
13.864097 49.097862 0.000000
14.178838 49.097862 0.000000
14.493579 49.097862 0.000000
14.808320 49.097862 0.000000
15.123059 49.097862 0.000000
15.437800 49.097862 0.000000
15.752542 49.097862 3.960120
16.067284 49.097862 3.073817
16.382023 49.097862 0.000000
16.696766 49.097862 0.000000
17.011505 49.097862 0.192422
17.326248 49.097862 0.885894
17.640987 49.097862 0.771698
17.955730 49.097862 1.401040
18.270470 49.097862 0.924757
18.585213 49.097862 0.655395
18.899952 49.097862 0.000000
-7.223550 48.783119 0.000000
-6.908809 48.783119 0.000000
-6.594068 48.783119 0.000000
-6.279327 48.783119 0.000000
-5.964586 48.783119 0.000000
-5.649845 48.783119 0.000000
-5.335104 48.783119 0.000000
-5.020363 48.783119 0.000000
-4.705622 48.783119 0.000000
-4.390881 48.783119 0.000000
-4.076140 48.783119 0.000000
-3.761399 48.783119 0.000000
-3.446658 48.783119 0.000000
-3.131917 48.783119 0.000000
-2.817176 48.783119 0.000000
-2.502435 48.783119 0.000000
-2.187694 48.783119 0.000000
-1.872953 48.783119 0.000000
-1.558212 48.783119 0.000000
-1.243471 48.783119 0.000000
-0.928730 48.783119 0.000000
-0.613989 48.783119 0.000000
-0.299248 48.783119 0.000000
0.015493 48.783119 0.000000
0.330234 48.783119 0.000000
0.644975 48.783119 0.000000
0.959716 48.783119 0.000000
1.274457 48.783119 0.000000
1.589198 48.783119 0.000000
1.903938 48.783119 0.000000
2.218679 48.783119 0.000000
2.533421 48.783119 0.000000
2.848162 48.783119 0.000000
3.162903 48.783119 0.000000
3.477644 48.783119 0.000000
3.792385 48.783119 0.000000
4.107125 48.783119 0.000000
4.421866 48.783119 0.000000
4.736608 48.783119 0.000000
5.051349 48.783119 0.000000
5.366090 48.783119 0.000000
5.680831 48.783119 0.000000
5.995571 48.783119 0.000000
6.310312 48.783119 0.000000
6.625053 48.783119 0.000000
6.939795 48.783119 0.000000
7.254536 48.783119 0.000000
7.569277 48.783119 0.000000
7.884017 48.783119 0.000000
8.198758 48.783119 0.000000
8.513499 48.783119 0.000000
8.828240 48.783119 0.479021
9.142982 48.783119 0.233054
9.457723 48.783119 0.260554
9.772464 48.783119 0.622613
10.087205 48.783119 1.547167
10.401946 48.783119 1.727711
10.716687 48.783119 1.208149
11.031426 48.783119 1.356389
11.346168 48.783119 1.321857
11.660909 48.783119 1.402391
11.975650 48.783119 1.457465
12.290391 48.783119 1.522998
12.605132 48.783119 1.319377
12.919873 48.783119 1.255921
13.234614 48.783119 1.273458
13.549356 48.783119 1.255700
13.864097 48.783119 1.113942
14.178838 48.783119 1.049436
14.493579 48.783119 0.983612
14.808320 48.783119 0.959948
15.123059 48.783119 0.933362
15.437800 48.783119 0.955477
15.752542 48.783119 0.936180
16.067284 48.783119 0.988557
16.382023 48.783119 1.016030
16.696766 48.783119 1.054588
17.011505 48.783119 1.222935
17.326248 48.783119 1.389187
17.640987 48.783119 1.625715
17.955730 48.783119 1.871484
18.270470 48.783119 2.141673
18.585213 48.783119 2.389567
18.899952 48.783119 2.584260
-7.223550 48.468380 0.000000
-6.908809 48.468380 0.000000
-6.594068 48.468380 0.203419
-6.279327 48.468380 0.202797
-5.964586 48.468380 0.206476
-5.649845 48.468380 0.205835
-5.335104 48.468380 0.206316
-5.020363 48.468380 0.207840
-4.705622 48.468380 0.208054
-4.390881 48.468380 0.206268
-4.076140 48.468380 0.204765
-3.761399 48.468380 0.204741
-3.446658 48.468380 0.204141
-3.131917 48.468380 0.203209
-2.817176 48.468380 0.203016
-2.502435 48.468380 0.203049
-2.187694 48.468380 0.203872
-1.872953 48.468380 0.204197
-1.558212 48.468380 0.204405
-1.243471 48.468380 0.204888
-0.928730 48.468380 0.205781
-0.613989 48.468380 0.207110
-0.299248 48.468380 0.208382
0.015493 48.468380 0.208532
0.330234 48.468380 0.208254
0.644975 48.468380 0.208786
0.959716 48.468380 0.209458
1.274457 48.468380 0.209827
1.589198 48.468380 0.210039
1.903938 48.468380 0.210651
2.218679 48.468380 0.211275
2.533421 48.468380 0.211790
2.848162 48.468380 0.212404
3.162903 48.468380 0.213618
3.477644 48.468380 0.215492
3.792385 48.468380 0.217274
4.107125 48.468380 0.219992
4.421866 48.468380 0.223451
4.736608 48.468380 0.225692
5.051349 48.468380 0.225019
5.366090 48.468380 0.223045
5.680831 48.468380 0.219302
5.995571 48.468380 0.212690
6.310312 48.468380 0.206426
6.625053 48.468380 0.201997
6.939795 48.468380 0.199036
7.254536 48.468380 0.201676
7.569277 48.468380 0.212481
7.884017 48.468380 0.238536
8.198758 48.468380 0.299429
8.513499 48.468380 0.394902
8.828240 48.468380 0.522571
9.142982 48.468380 0.667793
9.457723 48.468380 0.804220
9.772464 48.468380 0.923644
10.087205 48.468380 1.025427
10.401946 48.468380 1.145325
10.716687 48.468380 1.229215
11.031426 48.468380 1.316835
11.346168 48.468380 1.398696
11.660909 48.468380 1.463682
11.975650 48.468380 1.519651
12.290391 48.468380 1.584807
12.605132 48.468380 1.639777
12.919873 48.468380 1.671598
13.234614 48.468380 1.709650
13.549356 48.468380 1.724480
13.864097 48.468380 1.748695
14.178838 48.468380 1.754886
14.493579 48.468380 1.722452
14.808320 48.468380 1.677093
15.123059 48.468380 1.642071
15.437800 48.468380 1.593130
15.752542 48.468380 1.535752
16.067284 48.468380 1.491272
16.382023 48.468380 1.426505
16.696766 48.468380 1.373686
17.011505 48.468380 1.367228
17.326248 48.468380 1.439537
17.640987 48.468380 1.546931
17.955730 48.468380 1.692869
18.270470 48.468380 1.933632
18.585213 48.468380 2.027288
18.899952 48.468380 1.958692
-7.223550 48.153637 0.000000
-6.908809 48.153637 0.000000
-6.594068 48.153637 0.201128
-6.279327 48.153637 0.203419
-5.964586 48.153637 0.202653
-5.649845 48.153637 0.202150
-5.335104 48.153637 0.201890
-5.020363 48.153637 0.202787
-4.705622 48.153637 0.203083
-4.390881 48.153637 0.201856
-4.076140 48.153637 0.200863
-3.761399 48.153637 0.201019
-3.446658 48.153637 0.200712
-3.131917 48.153637 0.199908
-2.817176 48.153637 0.199751
-2.502435 48.153637 0.199866
-2.187694 48.153637 0.200327
-1.872953 48.153637 0.200500
-1.558212 48.153637 0.200580
-1.243471 48.153637 0.200767
-0.928730 48.153637 0.201602
-0.613989 48.153637 0.202664
-0.299248 48.153637 0.203798
0.015493 48.153637 0.204397
0.330234 48.153637 0.204267
0.644975 48.153637 0.205063
0.959716 48.153637 0.206168
1.274457 48.153637 0.206568
1.589198 48.153637 0.206769
1.903938 48.153637 0.207426
2.218679 48.153637 0.208461
2.533421 48.153637 0.209146
2.848162 48.153637 0.209687
3.162903 48.153637 0.210760
3.477644 48.153637 0.212496
3.792385 48.153637 0.214610
4.107125 48.153637 0.217334
4.421866 48.153637 0.220750
4.736608 48.153637 0.224891
5.051349 48.153637 0.229261
5.366090 48.153637 0.234372
5.680831 48.153637 0.240229
5.995571 48.153637 0.247018
6.310312 48.153637 0.255580
6.625053 48.153637 0.267499
6.939795 48.153637 0.279221
7.254536 48.153637 0.294775
7.569277 48.153637 0.318921
7.884017 48.153637 0.349448
8.198758 48.153637 0.391949
8.513499 48.153637 0.448280
8.828240 48.153637 0.540910
9.142982 48.153637 0.669162
9.457723 48.153637 0.813726
9.772464 48.153637 0.948476
10.087205 48.153637 1.077913
10.401946 48.153637 1.211250
10.716687 48.153637 1.320830
11.031426 48.153637 1.416231
11.346168 48.153637 1.498665
11.660909 48.153637 1.556693
11.975650 48.153637 1.613568
12.290391 48.153637 1.665353
12.605132 48.153637 1.706664
12.919873 48.153637 1.728162
13.234614 48.153637 1.741876
13.549356 48.153637 1.752644
13.864097 48.153637 1.756474
14.178838 48.153637 1.749663
14.493579 48.153637 1.710855
14.808320 48.153637 1.668570
15.123059 48.153637 1.618682
15.437800 48.153637 1.558356
15.752542 48.153637 1.503064
16.067284 48.153637 1.442840
16.382023 48.153637 1.377923
16.696766 48.153637 1.329978
17.011505 48.153637 1.330404
17.326248 48.153637 1.376269
17.640987 48.153637 1.528386
17.955730 48.153637 1.750741
18.270470 48.153637 2.073782
18.585213 48.153637 2.383248
18.899952 48.153637 2.211297
-7.223550 47.838898 0.000000
-6.908809 47.838898 0.000000
-6.594068 47.838898 0.203874
-6.279327 47.838898 0.200345
-5.964586 47.838898 0.199552
-5.649845 47.838898 0.199293
-5.335104 47.838898 0.199193
-5.020363 47.838898 0.199720
-4.705622 47.838898 0.199982
-4.390881 47.838898 0.199225
-4.076140 47.838898 0.198588
-3.761399 47.838898 0.198753
-3.446658 47.838898 0.198819
-3.131917 47.838898 0.198333
-2.817176 47.838898 0.198090
-2.502435 47.838898 0.198115
-2.187694 47.838898 0.198359
-1.872953 47.838898 0.198389
-1.558212 47.838898 0.198319
-1.243471 47.838898 0.198240
-0.928730 47.838898 0.198748
-0.613989 47.838898 0.199569
-0.299248 47.838898 0.200625
0.015493 47.838898 0.201456
0.330234 47.838898 0.201450
0.644975 47.838898 0.202183
0.959716 47.838898 0.203212
1.274457 47.838898 0.203695
1.589198 47.838898 0.203774
1.903938 47.838898 0.204521
2.218679 47.838898 0.205765
2.533421 47.838898 0.206858
2.848162 47.838898 0.207488
3.162903 47.838898 0.208413
3.477644 47.838898 0.209933
3.792385 47.838898 0.212203
4.107125 47.838898 0.214855
4.421866 47.838898 0.217867
4.736608 47.838898 0.221734
5.051349 47.838898 0.225734
5.366090 47.838898 0.230799
5.680831 47.838898 0.236549
5.995571 47.838898 0.243747
6.310312 47.838898 0.252337
6.625053 47.838898 0.263938
6.939795 47.838898 0.276216
7.254536 47.838898 0.291022
7.569277 47.838898 0.312996
7.884017 47.838898 0.341700
8.198758 47.838898 0.379942
8.513499 47.838898 0.435104
8.828240 47.838898 0.533182
9.142982 47.838898 0.653836
9.457723 47.838898 0.796896
9.772464 47.838898 0.935896
10.087205 47.838898 1.070190
10.401946 47.838898 1.193358
10.716687 47.838898 1.304398
11.031426 47.838898 1.398681
11.346168 47.838898 1.473572
11.660909 47.838898 1.537826
11.975650 47.838898 1.591348
12.290391 47.838898 1.645617
12.605132 47.838898 1.685986
12.919873 47.838898 1.697663
13.234614 47.838898 1.719388
13.549356 47.838898 1.714686
13.864097 47.838898 1.721127
14.178838 47.838898 1.712587
14.493579 47.838898 1.680337
14.808320 47.838898 1.644974
15.123059 47.838898 1.583864
15.437800 47.838898 1.523232
15.752542 47.838898 1.452269
16.067284 47.838898 1.392176
16.382023 47.838898 1.325843
16.696766 47.838898 1.278386
17.011505 47.838898 1.284517
17.326248 47.838898 1.340887
17.640987 47.838898 1.482173
17.955730 47.838898 1.715288
18.270470 47.838898 2.076129
18.585213 47.838898 2.507934
18.899952 47.838898 2.408978
-7.223550 47.524155 0.000000
-6.908809 47.524155 0.000000
-6.594068 47.524155 0.201602
-6.279327 47.524155 0.198308
-5.964586 47.524155 0.197932
-5.649845 47.524155 0.197817
-5.335104 47.524155 0.197945
-5.020363 47.524155 0.198623
-4.705622 47.524155 0.198750
-4.390881 47.524155 0.198178
-4.076140 47.524155 0.197716
-3.761399 47.524155 0.197829
-3.446658 47.524155 0.198262
-3.131917 47.524155 0.198132
-2.817176 47.524155 0.197726
-2.502435 47.524155 0.197745
-2.187694 47.524155 0.197873
-1.872953 47.524155 0.197728
-1.558212 47.524155 0.197607
-1.243471 47.524155 0.197293
-0.928730 47.524155 0.197478
-0.613989 47.524155 0.198200
-0.299248 47.524155 0.199222
0.015493 47.524155 0.200223
0.330234 47.524155 0.200462
0.644975 47.524155 0.200973
0.959716 47.524155 0.201934
1.274457 47.524155 0.202480
1.589198 47.524155 0.202604
1.903938 47.524155 0.203506
2.218679 47.524155 0.204916
2.533421 47.524155 0.206284
2.848162 47.524155 0.207084
3.162903 47.524155 0.207897
3.477644 47.524155 0.209236
3.792385 47.524155 0.211456
4.107125 47.524155 0.213922
4.421866 47.524155 0.216675
4.736608 47.524155 0.220237
5.051349 47.524155 0.224032
5.366090 47.524155 0.228880
5.680831 47.524155 0.234839
5.995571 47.524155 0.242125
6.310312 47.524155 0.250794
6.625053 47.524155 0.261983
6.939795 47.524155 0.274270
7.254536 47.524155 0.289616
7.569277 47.524155 0.310241
7.884017 47.524155 0.337116
8.198758 47.524155 0.374983
8.513499 47.524155 0.428928
8.828240 47.524155 0.528037
9.142982 47.524155 0.647834
9.457723 47.524155 0.788460
9.772464 47.524155 0.932280
10.087205 47.524155 1.062601
10.401946 47.524155 1.182344
10.716687 47.524155 1.301875
11.031426 47.524155 1.390282
11.346168 47.524155 1.462958
11.660909 47.524155 1.522379
11.975650 47.524155 1.585311
12.290391 47.524155 1.634506
12.605132 47.524155 1.666088
12.919873 47.524155 1.683139
13.234614 47.524155 1.697858
13.549356 47.524155 1.702911
13.864097 47.524155 1.706854
14.178838 47.524155 1.698573
14.493579 47.524155 1.675121
14.808320 47.524155 1.626871
15.123059 47.524155 1.565743
15.437800 47.524155 1.506606
15.752542 47.524155 1.438859
16.067284 47.524155 1.371914
16.382023 47.524155 1.311428
16.696766 47.524155 1.252930
17.011505 47.524155 1.248237
17.326248 47.524155 1.313405
17.640987 47.524155 1.461581
17.955730 47.524155 1.686505
18.270470 47.524155 2.045201
18.585213 47.524155 2.496204
18.899952 47.524155 2.383915
-7.223550 47.209415 0.000000
-6.908809 47.209415 0.000000
-6.594068 47.209415 0.200370
-6.279327 47.209415 0.197318
-5.964586 47.209415 0.197387
-5.649845 47.209415 0.197340
-5.335104 47.209415 0.197776
-5.020363 47.209415 0.198628
-4.705622 47.209415 0.198529
-4.390881 47.209415 0.197895
-4.076140 47.209415 0.197578
-3.761399 47.209415 0.197612
-3.446658 47.209415 0.198208
-3.131917 47.209415 0.198333
-2.817176 47.209415 0.197902
-2.502435 47.209415 0.197875
-2.187694 47.209415 0.197960
-1.872953 47.209415 0.197807
-1.558212 47.209415 0.197578
-1.243471 47.209415 0.196968
-0.928730 47.209415 0.196831
-0.613989 47.209415 0.197409
-0.299248 47.209415 0.198421
0.015493 47.209415 0.199519
0.330234 47.209415 0.200112
0.644975 47.209415 0.200575
0.959716 47.209415 0.201545
1.274457 47.209415 0.202056
1.589198 47.209415 0.202373
1.903938 47.209415 0.203444
2.218679 47.209415 0.205110
2.533421 47.209415 0.206502
2.848162 47.209415 0.207497
3.162903 47.209415 0.208456
3.477644 47.209415 0.209726
3.792385 47.209415 0.211766
4.107125 47.209415 0.214009
4.421866 47.209415 0.216534
4.736608 47.209415 0.219936
5.051349 47.209415 0.223462
5.366090 47.209415 0.228142
5.680831 47.209415 0.233901
5.995571 47.209415 0.241336
6.310312 47.209415 0.249610
6.625053 47.209415 0.260204
6.939795 47.209415 0.272401
7.254536 47.209415 0.288575
7.569277 47.209415 0.308852
7.884017 47.209415 0.333925
8.198758 47.209415 0.371967
8.513499 47.209415 0.427826
8.828240 47.209415 0.521412
9.142982 47.209415 0.647150
9.457723 47.209415 0.783862
9.772464 47.209415 0.930748
10.087205 47.209415 1.063271
10.401946 47.209415 1.186140
10.716687 47.209415 1.298033
11.031426 47.209415 1.392514
11.346168 47.209415 1.461246
11.660909 47.209415 1.524924
11.975650 47.209415 1.578875
12.290391 47.209415 1.635952
12.605132 47.209415 1.660204
12.919873 47.209415 1.682978
13.234614 47.209415 1.694759
13.549356 47.209415 1.698628
13.864097 47.209415 1.702553
14.178838 47.209415 1.693475
14.493579 47.209415 1.668014
14.808320 47.209415 1.617727
15.123059 47.209415 1.561401
15.437800 47.209415 1.497780
15.752542 47.209415 1.424984
16.067284 47.209415 1.357435
16.382023 47.209415 1.302561
16.696766 47.209415 1.242578
17.011505 47.209415 1.235653
17.326248 47.209415 1.308826
17.640987 47.209415 1.450097
17.955730 47.209415 1.667704
18.270470 47.209415 2.019662
18.585213 47.209415 2.453363
18.899952 47.209415 2.365839
-7.223550 46.894672 0.000000
-6.908809 46.894672 0.000000
-6.594068 46.894672 0.200081
-6.279327 46.894672 0.197038
-5.964586 46.894672 0.197152
-5.649845 46.894672 0.197334
-5.335104 46.894672 0.198040
-5.020363 46.894672 0.198857
-4.705622 46.894672 0.198562
-4.390881 46.894672 0.197820
-4.076140 46.894672 0.197572
-3.761399 46.894672 0.197663
-3.446658 46.894672 0.198291
-3.131917 46.894672 0.198475
-2.817176 46.894672 0.198052
-2.502435 46.894672 0.197998
-2.187694 46.894672 0.198145
-1.872953 46.894672 0.198105
-1.558212 46.894672 0.197725
-1.243471 46.894672 0.196882
-0.928730 46.894672 0.196498
-0.613989 46.894672 0.196918
-0.299248 46.894672 0.197701
0.015493 46.894672 0.198671
0.330234 46.894672 0.199460
0.644975 46.894672 0.200044
0.959716 46.894672 0.201018
1.274457 46.894672 0.201657
1.589198 46.894672 0.202149
1.903938 46.894672 0.203314
2.218679 46.894672 0.205184
2.533421 46.894672 0.206774
2.848162 46.894672 0.207963
3.162903 46.894672 0.209281
3.477644 46.894672 0.210607
3.792385 46.894672 0.212414
4.107125 46.894672 0.214607
4.421866 46.894672 0.217191
4.736608 46.894672 0.220320
5.051349 46.894672 0.223632
5.366090 46.894672 0.227992
5.680831 46.894672 0.233838
5.995571 46.894672 0.240597
6.310312 46.894672 0.249233
6.625053 46.894672 0.259452
6.939795 46.894672 0.271702
7.254536 46.894672 0.286442
7.569277 46.894672 0.306872
7.884017 46.894672 0.333597
8.198758 46.894672 0.372788
8.513499 46.894672 0.432808
8.828240 46.894672 0.522709
9.142982 46.894672 0.648809
9.457723 46.894672 0.791147
9.772464 46.894672 0.931817
10.087205 46.894672 1.066321
10.401946 46.894672 1.190548
10.716687 46.894672 1.299402
11.031426 46.894672 1.392162
11.346168 46.894672 1.464418
11.660909 46.894672 1.531305
11.975650 46.894672 1.587288
12.290391 46.894672 1.637785
12.605132 46.894672 1.666306
12.919873 46.894672 1.686539
13.234614 46.894672 1.696892
13.549356 46.894672 1.706952
13.864097 46.894672 1.704913
14.178838 46.894672 1.693343
14.493579 46.894672 1.667430
14.808320 46.894672 1.617973
15.123059 46.894672 1.560099
15.437800 46.894672 1.494453
15.752542 46.894672 1.424168
16.067284 46.894672 1.357553
16.382023 46.894672 1.289239
16.696766 46.894672 1.242176
17.011505 46.894672 1.249352
17.326248 46.894672 1.309096
17.640987 46.894672 1.463120
17.955730 46.894672 1.675277
18.270470 46.894672 1.981123
18.585213 46.894672 2.367856
18.899952 46.894672 2.301092
-7.223550 46.579933 0.000000
-6.908809 46.579933 0.000000
-6.594068 46.579933 0.199995
-6.279327 46.579933 0.196913
-5.964586 46.579933 0.196974
-5.649845 46.579933 0.197476
-5.335104 46.579933 0.198302
-5.020363 46.579933 0.198849
-4.705622 46.579933 0.198370
-4.390881 46.579933 0.197643
-4.076140 46.579933 0.197501
-3.761399 46.579933 0.197713
-3.446658 46.579933 0.198453
-3.131917 46.579933 0.198478
-2.817176 46.579933 0.198132
-2.502435 46.579933 0.198191
-2.187694 46.579933 0.198539
-1.872953 46.579933 0.198590
-1.558212 46.579933 0.198074
-1.243471 46.579933 0.197035
-0.928730 46.579933 0.196455
-0.613989 46.579933 0.196583
-0.299248 46.579933 0.196846
0.015493 46.579933 0.197445
0.330234 46.579933 0.198358
0.644975 46.579933 0.199114
0.959716 46.579933 0.200077
1.274457 46.579933 0.200784
1.589198 46.579933 0.201437
1.903938 46.579933 0.202759
2.218679 46.579933 0.204922
2.533421 46.579933 0.206644
2.848162 46.579933 0.207927
3.162903 46.579933 0.209575
3.477644 46.579933 0.211075
3.792385 46.579933 0.212912
4.107125 46.579933 0.215306
4.421866 46.579933 0.218141
4.736608 46.579933 0.221149
5.051349 46.579933 0.224423
5.366090 46.579933 0.228361
5.680831 46.579933 0.233770
5.995571 46.579933 0.240213
6.310312 46.579933 0.248946
6.625053 46.579933 0.258396
6.939795 46.579933 0.271109
7.254536 46.579933 0.285431
7.569277 46.579933 0.305148
7.884017 46.579933 0.332109
8.198758 46.579933 0.377428
8.513499 46.579933 0.434481
8.828240 46.579933 0.525517
9.142982 46.579933 0.647252
9.457723 46.579933 0.791854
9.772464 46.579933 0.935344
10.087205 46.579933 1.065493
10.401946 46.579933 1.191462
10.716687 46.579933 1.297644
11.031426 46.579933 1.388104
11.346168 46.579933 1.470340
11.660909 46.579933 1.533096
11.975650 46.579933 1.593462
12.290391 46.579933 1.641190
12.605132 46.579933 1.677177
12.919873 46.579933 1.694334
13.234614 46.579933 1.701759
13.549356 46.579933 1.702738
13.864097 46.579933 1.704493
14.178838 46.579933 1.692836
14.493579 46.579933 1.663272
14.808320 46.579933 1.613211
15.123059 46.579933 1.559019
15.437800 46.579933 1.492816
15.752542 46.579933 1.425841
16.067284 46.579933 1.352697
16.382023 46.579933 1.282975
16.696766 46.579933 1.247810
17.011505 46.579933 1.270794
17.326248 46.579933 1.340925
17.640987 46.579933 1.483230
17.955730 46.579933 1.707067
18.270470 46.579933 1.996636
18.585213 46.579933 2.331021
18.899952 46.579933 2.157915
-7.223550 46.265190 0.000000
-6.908809 46.265190 0.000000
-6.594068 46.265190 0.200486
-6.279327 46.265190 0.197057
-5.964586 46.265190 0.196891
-5.649845 46.265190 0.197381
-5.335104 46.265190 0.198025
-5.020363 46.265190 0.198192
-4.705622 46.265190 0.197724
-4.390881 46.265190 0.197166
-4.076140 46.265190 0.197163
-3.761399 46.265190 0.197708
-3.446658 46.265190 0.198483
-3.131917 46.265190 0.198417
-2.817176 46.265190 0.198245
-2.502435 46.265190 0.198472
-2.187694 46.265190 0.198965
-1.872953 46.265190 0.199218
-1.558212 46.265190 0.198598
-1.243471 46.265190 0.197523
-0.928730 46.265190 0.196839
-0.613989 46.265190 0.196599
-0.299248 46.265190 0.196362
0.015493 46.265190 0.196509
0.330234 46.265190 0.197333
0.644975 46.265190 0.198215
0.959716 46.265190 0.199120
1.274457 46.265190 0.199650
1.589198 46.265190 0.200210
1.903938 46.265190 0.201779
2.218679 46.265190 0.204166
2.533421 46.265190 0.205917
2.848162 46.265190 0.207220
3.162903 46.265190 0.209093
3.477644 46.265190 0.210920
3.792385 46.265190 0.213080
4.107125 46.265190 0.215856
4.421866 46.265190 0.219051
4.736608 46.265190 0.222289
5.051349 46.265190 0.225537
5.366090 46.265190 0.229650
5.680831 46.265190 0.234893
5.995571 46.265190 0.241165
6.310312 46.265190 0.249559
6.625053 46.265190 0.258955
6.939795 46.265190 0.270079
7.254536 46.265190 0.284947
7.569277 46.265190 0.302826
7.884017 46.265190 0.331021
8.198758 46.265190 0.372902
8.513499 46.265190 0.433308
8.828240 46.265190 0.523555
9.142982 46.265190 0.650624
9.457723 46.265190 0.793160
9.772464 46.265190 0.930623
10.087205 46.265190 1.069424
10.401946 46.265190 1.191736
10.716687 46.265190 1.293187
11.031426 46.265190 1.382776
11.346168 46.265190 1.466166
11.660909 46.265190 1.533887
11.975650 46.265190 1.595990
12.290391 46.265190 1.646339
12.605132 46.265190 1.677131
12.919873 46.265190 1.696261
13.234614 46.265190 1.706579
13.549356 46.265190 1.708979
13.864097 46.265190 1.703048
14.178838 46.265190 1.694589
14.493579 46.265190 1.662539
14.808320 46.265190 1.614865
15.123059 46.265190 1.560264
15.437800 46.265190 1.503986
15.752542 46.265190 1.435115
16.067284 46.265190 1.366110
16.382023 46.265190 1.298762
16.696766 46.265190 1.271957
17.011505 46.265190 1.305186
17.326248 46.265190 1.400831
17.640987 46.265190 1.529509
17.955730 46.265190 1.747879
18.270470 46.265190 2.014347
18.585213 46.265190 2.310999
18.899952 46.265190 2.091651
-7.223550 45.950451 0.000000
-6.908809 45.950451 0.000000
-6.594068 45.950451 0.201184
-6.279327 45.950451 0.197399
-5.964586 45.950451 0.196918
-5.649845 45.950451 0.197153
-5.335104 45.950451 0.197314
-5.020363 45.950451 0.197095
-4.705622 45.950451 0.196729
-4.390881 45.950451 0.196480
-4.076140 45.950451 0.196679
-3.761399 45.950451 0.197268
-3.446658 45.950451 0.198083
-3.131917 45.950451 0.198283
-2.817176 45.950451 0.198373
-2.502435 45.950451 0.198650
-2.187694 45.950451 0.199391
-1.872953 45.950451 0.199888
-1.558212 45.950451 0.199267
-1.243471 45.950451 0.198372
-0.928730 45.950451 0.197762
-0.613989 45.950451 0.197118
-0.299248 45.950451 0.196345
0.015493 45.950451 0.196229
0.330234 45.950451 0.196925
0.644975 45.950451 0.197709
0.959716 45.950451 0.198297
1.274457 45.950451 0.198416
1.589198 45.950451 0.198925
1.903938 45.950451 0.200561
2.218679 45.950451 0.202847
2.533421 45.950451 0.204597
2.848162 45.950451 0.205889
3.162903 45.950451 0.207883
3.477644 45.950451 0.210091
3.792385 45.950451 0.212495
4.107125 45.950451 0.215830
4.421866 45.950451 0.219305
4.736608 45.950451 0.222874
5.051349 45.950451 0.226858
5.366090 45.950451 0.230963
5.680831 45.950451 0.236266
5.995571 45.950451 0.242492
6.310312 45.950451 0.250682
6.625053 45.950451 0.260097
6.939795 45.950451 0.270805
7.254536 45.950451 0.285203
7.569277 45.950451 0.304084
7.884017 45.950451 0.329795
8.198758 45.950451 0.371763
8.513499 45.950451 0.432899
8.828240 45.950451 0.523055
9.142982 45.950451 0.645492
9.457723 45.950451 0.790868
9.772464 45.950451 0.929138
10.087205 45.950451 1.063121
10.401946 45.950451 1.187719
10.716687 45.950451 1.299296
11.031426 45.950451 1.388865
11.346168 45.950451 1.462543
11.660909 45.950451 1.534399
11.975650 45.950451 1.596817
12.290391 45.950451 1.647511
12.605132 45.950451 1.680178
12.919873 45.950451 1.698751
13.234614 45.950451 1.706378
13.549356 45.950451 1.712124
13.864097 45.950451 1.711485
14.178838 45.950451 1.693656
14.493579 45.950451 1.664128
14.808320 45.950451 1.616127
15.123059 45.950451 1.568168
15.437800 45.950451 1.514337
15.752542 45.950451 1.448697
16.067284 45.950451 1.381053
16.382023 45.950451 1.326011
16.696766 45.950451 1.306609
17.011505 45.950451 1.344415
17.326248 45.950451 1.457458
17.640987 45.950451 1.629473
17.955730 45.950451 1.824037
18.270470 45.950451 2.044716
18.585213 45.950451 2.339964
18.899952 45.950451 2.070492
-7.223550 45.635712 0.000000