TITLE = "B00006"
VARIABLES = "x", "y", "RMS Vy"
ZONE T="Frame 1" I=84, J=163, F=POINT
-6.810190 48.562302 0.000000
-6.496367 48.562302 0.000000
-6.182544 48.562302 0.000000
-5.868721 48.562302 0.000000
-5.554898 48.562302 0.000000
-5.241075 48.562302 0.000000
-4.927252 48.562302 0.000000
-4.613429 48.562302 0.000000
-4.299606 48.562302 0.000000
-3.985783 48.562302 0.000000
-3.671960 48.562302 0.000000
-3.358137 48.562302 0.000000
-3.044314 48.562302 0.000000
-2.730491 48.562302 0.000000
-2.416668 48.562302 0.000000
-2.102845 48.562302 0.000000
-1.789022 48.562302 0.000000
-1.475199 48.562302 0.000000
-1.161376 48.562302 0.000000
-0.847553 48.562302 0.000000
-0.533730 48.562302 0.000000
-0.219907 48.562302 0.000000
0.093916 48.562302 0.000000
0.407739 48.562302 0.000000
0.721562 48.562302 0.000000
1.035385 48.562302 0.000000
1.349208 48.562302 0.000000
1.663032 48.562302 0.000000
1.976854 48.562302 0.000000
2.290677 48.562302 0.000000
2.604500 48.562302 0.000000
2.918324 48.562302 0.000000
3.232146 48.562302 0.000000
3.545969 48.562302 0.000000
3.859793 48.562302 0.000000
4.173615 48.562302 0.000000
4.487438 48.562302 0.000000
4.801261 48.562302 0.000000
5.115085 48.562302 0.000000
5.428907 48.562302 0.000000
5.742730 48.562302 0.000000
6.056554 48.562302 0.000000
6.370377 48.562302 0.000000
6.684199 48.562302 0.000000
6.998022 48.562302 0.000000
7.311846 48.562302 0.000000
7.625669 48.562302 0.000000
7.939491 48.562302 0.000000
8.253315 48.562302 0.000000
8.567138 48.562302 0.000000
8.880960 48.562302 0.000000
9.194784 48.562302 0.000000
9.508606 48.562302 0.000000
9.822430 48.562302 0.000000
10.136253 48.562302 0.000000
10.450075 48.562302 0.000000
10.763899 48.562302 0.000000
11.077723 48.562302 0.000000
11.391544 48.562302 0.000000
11.705368 48.562302 0.000000
12.019190 48.562302 0.000000
12.333014 48.562302 0.000000
12.646837 48.562302 0.000000
12.960659 48.562302 0.000000
13.274483 48.562302 0.000000
13.588306 48.562302 0.000000
13.902128 48.562302 0.000000
14.215952 48.562302 0.000000
14.529776 48.562302 0.000000
14.843597 48.562302 0.000000
15.157421 48.562302 0.000000
15.471243 48.562302 0.000000
15.785067 48.562302 0.000000
16.098890 48.562302 0.000000
16.412712 48.562302 0.000000
16.726536 48.562302 0.000000
17.040359 48.562302 0.000000
17.354181 48.562302 0.000000
17.668005 48.562302 0.000000
17.981829 48.562302 0.000000
18.295650 48.562302 0.000000
18.609474 48.562302 0.000000
18.923298 48.562302 0.000000
19.237120 48.562302 0.000000
-6.810190 48.248478 0.000000
-6.496367 48.248478 0.000000
-6.182544 48.248478 0.000000
-5.868721 48.248478 0.000000
-5.554898 48.248478 0.000000
-5.241075 48.248478 0.000000
-4.927252 48.248478 0.000000
-4.613429 48.248478 0.000000
-4.299606 48.248478 0.000000
-3.985783 48.248478 0.000000
-3.671960 48.248478 0.000000
-3.358137 48.248478 0.000000
-3.044314 48.248478 0.000000
-2.730491 48.248478 0.000000
-2.416668 48.248478 0.000000
-2.102845 48.248478 0.000000
-1.789022 48.248478 0.000000
-1.475199 48.248478 0.000000
-1.161376 48.248478 0.000000
-0.847553 48.248478 0.000000
-0.533730 48.248478 0.000000
-0.219907 48.248478 0.000000
0.093916 48.248478 0.000000
0.407739 48.248478 0.000000
0.721562 48.248478 0.000000
1.035385 48.248478 0.000000
1.349208 48.248478 0.000000
1.663032 48.248478 0.000000
1.976854 48.248478 0.000000
2.290677 48.248478 0.000000
2.604500 48.248478 0.000000
2.918324 48.248478 0.000000
3.232146 48.248478 0.000000
3.545969 48.248478 0.000000
3.859793 48.248478 0.000000
4.173615 48.248478 0.000000
4.487438 48.248478 0.000000
4.801261 48.248478 0.000000
5.115085 48.248478 0.000000
5.428907 48.248478 0.000000
5.742730 48.248478 0.000000
6.056554 48.248478 0.000000
6.370377 48.248478 0.000000
6.684199 48.248478 0.000000
6.998022 48.248478 0.000000
7.311846 48.248478 0.000000
7.625669 48.248478 0.000000
7.939491 48.248478 0.000000
8.253315 48.248478 0.000000
8.567138 48.248478 0.000000
8.880960 48.248478 0.000000
9.194784 48.248478 0.000000
9.508606 48.248478 0.000000
9.822430 48.248478 0.000000
10.136253 48.248478 0.000000
10.450075 48.248478 0.000000
10.763899 48.248478 0.000000
11.077723 48.248478 0.000000
11.391544 48.248478 0.000000
11.705368 48.248478 0.000000
12.019190 48.248478 0.000000
12.333014 48.248478 0.000000
12.646837 48.248478 0.000000
12.960659 48.248478 0.000000
13.274483 48.248478 0.000000
13.588306 48.248478 0.000000
13.902128 48.248478 0.000000
14.215952 48.248478 0.000000
14.529776 48.248478 0.000000
14.843597 48.248478 0.000000
15.157421 48.248478 0.000000
15.471243 48.248478 0.000000
15.785067 48.248478 0.000000
16.098890 48.248478 0.000000
16.412712 48.248478 0.000000
16.726536 48.248478 0.000000
17.040359 48.248478 0.000000
17.354181 48.248478 0.000000
17.668005 48.248478 0.000000
17.981829 48.248478 0.000000
18.295650 48.248478 0.000000
18.609474 48.248478 0.000000
18.923298 48.248478 0.000000
19.237120 48.248478 0.000000
-6.810190 47.934654 0.000000
-6.496367 47.934654 0.000000
-6.182544 47.934654 0.000000
-5.868721 47.934654 0.000000
-5.554898 47.934654 0.000000
-5.241075 47.934654 0.000000
-4.927252 47.934654 0.000000
-4.613429 47.934654 0.000000
-4.299606 47.934654 0.000000
-3.985783 47.934654 0.000000
-3.671960 47.934654 0.000000
-3.358137 47.934654 0.000000
-3.044314 47.934654 0.000000
-2.730491 47.934654 0.000000
-2.416668 47.934654 0.000000
-2.102845 47.934654 0.000000
-1.789022 47.934654 0.000000
-1.475199 47.934654 0.000000
-1.161376 47.934654 0.000000
-0.847553 47.934654 0.000000
-0.533730 47.934654 0.000000
-0.219907 47.934654 0.000000
0.093916 47.934654 0.000000
0.407739 47.934654 0.000000
0.721562 47.934654 0.000000
1.035385 47.934654 0.000000
1.349208 47.934654 0.000000
1.663032 47.934654 0.000000
1.976854 47.934654 0.000000
2.290677 47.934654 0.000000
2.604500 47.934654 0.000000
2.918324 47.934654 0.000000
3.232146 47.934654 0.000000
3.545969 47.934654 0.000000
3.859793 47.934654 0.000000
4.173615 47.934654 0.000000
4.487438 47.934654 0.000000
4.801261 47.934654 0.000000
5.115085 47.934654 0.000000
5.428907 47.934654 0.000000
5.742730 47.934654 0.000000
6.056554 47.934654 0.000000
6.370377 47.934654 0.000000
6.684199 47.934654 0.000000
6.998022 47.934654 0.000000
7.311846 47.934654 0.000000
7.625669 47.934654 0.000000
7.939491 47.934654 0.000000
8.253315 47.934654 0.000000
8.567138 47.934654 0.000000
8.880960 47.934654 0.000000
9.194784 47.934654 0.000000
9.508606 47.934654 0.000000
9.822430 47.934654 0.000000
10.136253 47.934654 0.387463
10.450075 47.934654 1.117069
10.763899 47.934654 1.117149
11.077723 47.934654 1.107061
11.391544 47.934654 1.396145
11.705368 47.934654 1.316397
12.019190 47.934654 1.081344
12.333014 47.934654 1.045948
12.646837 47.934654 0.997509
12.960659 47.934654 0.919131
13.274483 47.934654 1.003880
13.588306 47.934654 0.861829
13.902128 47.934654 0.829455
14.215952 47.934654 0.801362
14.529776 47.934654 0.776907
14.843597 47.934654 0.739299
15.157421 47.934654 0.711717
15.471243 47.934654 0.695362
15.785067 47.934654 0.684786
16.098890 47.934654 0.674121
16.412712 47.934654 0.653649
16.726536 47.934654 0.644455
17.040359 47.934654 0.618380
17.354181 47.934654 0.609711
17.668005 47.934654 0.599432
17.981829 47.934654 0.599960
18.295650 47.934654 0.597903
18.609474 47.934654 0.562358
18.923298 47.934654 0.536396
19.237120 47.934654 0.000000
-6.810190 47.620834 0.000000
-6.496367 47.620834 0.000000
-6.182544 47.620834 0.184331
-5.868721 47.620834 0.183253
-5.554898 47.620834 0.188705
-5.241075 47.620834 0.187495
-4.927252 47.620834 0.188587
-4.613429 47.620834 0.191713
-4.299606 47.620834 0.192471
-3.985783 47.620834 0.189845
-3.671960 47.620834 0.187228
-3.358137 47.620834 0.187289
-3.044314 47.620834 0.189016
-2.730491 47.620834 0.190544
-2.416668 47.620834 0.191147
-2.102845 47.620834 0.189870
-1.789022 47.620834 0.189558
-1.475199 47.620834 0.190083
-1.161376 47.620834 0.190366
-0.847553 47.620834 0.189953
-0.533730 47.620834 0.189669
-0.219907 47.620834 0.190651
0.093916 47.620834 0.191991
0.407739 47.620834 0.192004
0.721562 47.620834 0.192600
1.035385 47.620834 0.192987
1.349208 47.620834 0.193399
1.663032 47.620834 0.194634
1.976854 47.620834 0.196954
2.290677 47.620834 0.198584
2.604500 47.620834 0.198785
2.918324 47.620834 0.199130
3.232146 47.620834 0.201265
3.545969 47.620834 0.203054
3.859793 47.620834 0.203499
4.173615 47.620834 0.204879
4.487438 47.620834 0.207775
4.801261 47.620834 0.210957
5.115085 47.620834 0.214393
5.428907 47.620834 0.218380
5.742730 47.620834 0.222904
6.056554 47.620834 0.227603
6.370377 47.620834 0.231379
6.684199 47.620834 0.236110
6.998022 47.620834 0.241325
7.311846 47.620834 0.246071
7.625669 47.620834 0.252138
7.939491 47.620834 0.259622
8.253315 47.620834 0.269587
8.567138 47.620834 0.286949
8.880960 47.620834 0.332332
9.194784 47.620834 0.404189
9.508606 47.620834 0.506381
9.822430 47.620834 0.636726
10.136253 47.620834 0.770383
10.450075 47.620834 0.899813
10.763899 47.620834 1.042406
11.077723 47.620834 1.168253
11.391544 47.620834 1.294009
11.705368 47.620834 1.409729
12.019190 47.620834 1.484900
12.333014 47.620834 1.553632
12.646837 47.620834 1.605445
12.960659 47.620834 1.650836
13.274483 47.620834 1.693523
13.588306 47.620834 1.721611
13.902128 47.620834 1.724314
14.215952 47.620834 1.721819
14.529776 47.620834 1.695490
14.843597 47.620834 1.651941
15.157421 47.620834 1.615772
15.471243 47.620834 1.564409
15.785067 47.620834 1.502961
16.098890 47.620834 1.444752
16.412712 47.620834 1.381035
16.726536 47.620834 1.313629
17.040359 47.620834 1.249095
17.354181 47.620834 1.195735
17.668005 47.620834 1.183221
17.981829 47.620834 1.196946
18.295650 47.620834 1.222373
18.609474 47.620834 1.258408
18.923298 47.620834 1.280303
19.237120 47.620834 0.000000
-6.810190 47.307011 0.000000
-6.496367 47.307011 0.000000
-6.182544 47.307011 0.180964
-5.868721 47.307011 0.184348
-5.554898 47.307011 0.183729
-5.241075 47.307011 0.182202
-4.927252 47.307011 0.181943
-4.613429 47.307011 0.183939
-4.299606 47.307011 0.184679
-3.985783 47.307011 0.182675
-3.671960 47.307011 0.180689
-3.358137 47.307011 0.180773
-3.044314 47.307011 0.182356
-2.730491 47.307011 0.184327
-2.416668 47.307011 0.184951
-2.102845 47.307011 0.183779
-1.789022 47.307011 0.183263
-1.475199 47.307011 0.183349
-1.161376 47.307011 0.183403
-0.847553 47.307011 0.183280
-0.533730 47.307011 0.182993
-0.219907 47.307011 0.183494
0.093916 47.307011 0.184714
0.407739 47.307011 0.185374
0.721562 47.307011 0.186261
1.035385 47.307011 0.186946
1.349208 47.307011 0.187885
1.663032 47.307011 0.189332
1.976854 47.307011 0.191441
2.290677 47.307011 0.193134
2.604500 47.307011 0.193662
2.918324 47.307011 0.194475
3.232146 47.307011 0.196625
3.545969 47.307011 0.198489
3.859793 47.307011 0.199193
4.173615 47.307011 0.200627
4.487438 47.307011 0.203316
4.801261 47.307011 0.206868
5.115085 47.307011 0.210249
5.428907 47.307011 0.214222
5.742730 47.307011 0.219135
6.056554 47.307011 0.224979
6.370377 47.307011 0.231863
6.684199 47.307011 0.240078
6.998022 47.307011 0.250471
7.311846 47.307011 0.263562
7.625669 47.307011 0.280239
7.939491 47.307011 0.300160
8.253315 47.307011 0.320868
8.567138 47.307011 0.350057
8.880960 47.307011 0.396530
9.194784 47.307011 0.461607
9.508606 47.307011 0.553971
9.822430 47.307011 0.665714
10.136253 47.307011 0.806966
10.450075 47.307011 0.941005
10.763899 47.307011 1.077675
11.077723 47.307011 1.210023
11.391544 47.307011 1.338684
11.705368 47.307011 1.446234
12.019190 47.307011 1.526806
12.333014 47.307011 1.590385
12.646837 47.307011 1.639557
12.960659 47.307011 1.680264
13.274483 47.307011 1.710480
13.588306 47.307011 1.729392
13.902128 47.307011 1.732738
14.215952 47.307011 1.719216
14.529776 47.307011 1.687791
14.843597 47.307011 1.649878
15.157421 47.307011 1.604213
15.471243 47.307011 1.556419
15.785067 47.307011 1.490790
16.098890 47.307011 1.427341
16.412712 47.307011 1.361560
16.726536 47.307011 1.294260
17.040359 47.307011 1.221787
17.354181 47.307011 1.167688
17.668005 47.307011 1.151278
17.981829 47.307011 1.166162
18.295650 47.307011 1.209922
18.609474 47.307011 1.276592
18.923298 47.307011 1.353108
19.237120 47.307011 0.000000
-6.810190 46.993187 0.000000
-6.496367 46.993187 0.000000
-6.182544 46.993187 0.184639
-5.868721 46.993187 0.180723
-5.554898 46.993187 0.179726
-5.241075 46.993187 0.178420
-4.927252 46.993187 0.177544
-4.613429 46.993187 0.178685
-4.299606 46.993187 0.179149
-3.985783 46.993187 0.177845
-3.671960 46.993187 0.176345
-3.358137 46.993187 0.176406
-3.044314 46.993187 0.178026
-2.730491 46.993187 0.180157
-2.416668 46.993187 0.180801
-2.102845 46.993187 0.179736
-1.789022 46.993187 0.179158
-1.475199 46.993187 0.179100
-1.161376 46.993187 0.179057
-0.847553 46.993187 0.179059
-0.533730 46.993187 0.178714
-0.219907 46.993187 0.178642
0.093916 46.993187 0.179939
0.407739 46.993187 0.180894
0.721562 46.993187 0.181399
1.035385 46.993187 0.181916
1.349208 46.993187 0.182825
1.663032 46.993187 0.184128
1.976854 46.993187 0.185794
2.290677 46.993187 0.187362
2.604500 46.993187 0.188471
2.918324 46.993187 0.189940
3.232146 46.993187 0.192239
3.545969 46.993187 0.194407
3.859793 46.993187 0.195315
4.173615 46.993187 0.196760
4.487438 46.993187 0.199441
4.801261 46.993187 0.203077
5.115085 46.993187 0.206642
5.428907 46.993187 0.210874
5.742730 46.993187 0.215312
6.056554 46.993187 0.220964
6.370377 46.993187 0.227967
6.684199 46.993187 0.235740
6.998022 46.993187 0.245903
7.311846 46.993187 0.258234
7.625669 46.993187 0.274657
7.939491 46.993187 0.293379
8.253315 46.993187 0.313944
8.567138 46.993187 0.344671
8.880960 46.993187 0.390105
9.194784 46.993187 0.458314
9.508606 46.993187 0.547877
9.822430 46.993187 0.655640
10.136253 46.993187 0.790384
10.450075 46.993187 0.926062
10.763899 46.993187 1.061569
11.077723 46.993187 1.193891
11.391544 46.993187 1.319297
11.705368 46.993187 1.426843
12.019190 46.993187 1.514126
12.333014 46.993187 1.574992
12.646837 46.993187 1.623312
12.960659 46.993187 1.663021
13.274483 46.993187 1.692641
13.588306 46.993187 1.711541
13.902128 46.993187 1.718320
14.215952 46.993187 1.701889
14.529776 46.993187 1.672048
14.843597 46.993187 1.632674
15.157421 46.993187 1.589701
15.471243 46.993187 1.540423
15.785067 46.993187 1.476887
16.098890 46.993187 1.410767
16.412712 46.993187 1.344368
16.726536 46.993187 1.270993
17.040359 46.993187 1.202672
17.354181 46.993187 1.144979
17.668005 46.993187 1.128272
17.981829 46.993187 1.146879
18.295650 46.993187 1.194937
18.609474 46.993187 1.282069
18.923298 46.993187 1.380839
19.237120 46.993187 0.000000
-6.810190 46.679363 0.000000
-6.496367 46.679363 0.000000
-6.182544 46.679363 0.182093
-5.868721 46.679363 0.178584
-5.554898 46.679363 0.178154
-5.241075 46.679363 0.177143
-4.927252 46.679363 0.176100
-4.613429 46.679363 0.176599
-4.299606 46.679363 0.176806
-3.985783 46.679363 0.175837
-3.671960 46.679363 0.174629
-3.358137 46.679363 0.174378
-3.044314 46.679363 0.175928
-2.730491 46.679363 0.178111
-2.416668 46.679363 0.178652
-2.102845 46.679363 0.178012
-1.789022 46.679363 0.177557
-1.475199 46.679363 0.177785
-1.161376 46.679363 0.177969
-0.847553 46.679363 0.177934
-0.533730 46.679363 0.177587
-0.219907 46.679363 0.177331
0.093916 46.679363 0.178621
0.407739 46.679363 0.179856
0.721562 46.679363 0.179745
1.035385 46.679363 0.179732
1.349208 46.679363 0.180325
1.663032 46.679363 0.181208
1.976854 46.679363 0.182552
2.290677 46.679363 0.184094
2.604500 46.679363 0.185648
2.918324 46.679363 0.187558
3.232146 46.679363 0.190079
3.545969 46.679363 0.192172
3.859793 46.679363 0.193515
4.173615 46.679363 0.195191
4.487438 46.679363 0.198029
4.801261 46.679363 0.201714
5.115085 46.679363 0.205435
5.428907 46.679363 0.209556
5.742730 46.679363 0.214002
6.056554 46.679363 0.219486
6.370377 46.679363 0.226508
6.684199 46.679363 0.233888
6.998022 46.679363 0.243692
7.311846 46.679363 0.255639
7.625669 46.679363 0.270779
7.939491 46.679363 0.288737
8.253315 46.679363 0.309756
8.567138 46.679363 0.341671
8.880960 46.679363 0.384720
9.194784 46.679363 0.455557
9.508606 46.679363 0.543626
9.822430 46.679363 0.654220
10.136253 46.679363 0.781204
10.450075 46.679363 0.920363
10.763899 46.679363 1.055008
11.077723 46.679363 1.187595
11.391544 46.679363 1.314983
11.705368 46.679363 1.420335
12.019190 46.679363 1.504307
12.333014 46.679363 1.567174
12.646837 46.679363 1.619501
12.960659 46.679363 1.655033
13.274483 46.679363 1.676500
13.588306 46.679363 1.702905
13.902128 46.679363 1.708624
14.215952 46.679363 1.695147
14.529776 46.679363 1.662565
14.843597 46.679363 1.622857
15.157421 46.679363 1.582326
15.471243 46.679363 1.535406
15.785067 46.679363 1.470527
16.098890 46.679363 1.402777
16.412712 46.679363 1.337459
16.726536 46.679363 1.264287
17.040359 46.679363 1.195469
17.354181 46.679363 1.143531
17.668005 46.679363 1.128250
17.981829 46.679363 1.145034
18.295650 46.679363 1.195358
18.609474 46.679363 1.283443
18.923298 46.679363 1.389897
19.237120 46.679363 0.000000
-6.810190 46.365540 0.000000
-6.496367 46.365540 0.000000
-6.182544 46.365540 0.180976
-5.868721 46.365540 0.177929
-5.554898 46.365540 0.177942
-5.241075 46.365540 0.177334
-4.927252 46.365540 0.176543
-4.613429 46.365540 0.176531
-4.299606 46.365540 0.176655
-3.985783 46.365540 0.175657
-3.671960 46.365540 0.174234
-3.358137 46.365540 0.173498
-3.044314 46.365540 0.174620
-2.730491 46.365540 0.176580
-2.416668 46.365540 0.177194
-2.102845 46.365540 0.177186
-1.789022 46.365540 0.177306
-1.475199 46.365540 0.177939
-1.161376 46.365540 0.178417
-0.847553 46.365540 0.178427
-0.533730 46.365540 0.178199
-0.219907 46.365540 0.177991
0.093916 46.365540 0.178790
0.407739 46.365540 0.179956
0.721562 46.365540 0.179822
1.035385 46.365540 0.179459
1.349208 46.365540 0.179459
1.663032 46.365540 0.179787
1.976854 46.365540 0.180904
2.290677 46.365540 0.182351
2.604500 46.365540 0.184079
2.918324 46.365540 0.186073
3.232146 46.365540 0.188496
3.545969 46.365540 0.190722
3.859793 46.365540 0.192533
4.173615 46.365540 0.194648
4.487438 46.365540 0.197785
4.801261 46.365540 0.201576
5.115085 46.365540 0.205504
5.428907 46.365540 0.209700
5.742730 46.365540 0.214229
6.056554 46.365540 0.219616
6.370377 46.365540 0.226275
6.684199 46.365540 0.233561
6.998022 46.365540 0.243105
7.311846 46.365540 0.254636
7.625669 46.365540 0.268587
7.939491 46.365540 0.285432
8.253315 46.365540 0.307320
8.567138 46.365540 0.336950
8.880960 46.365540 0.381555
9.194784 46.365540 0.450751
9.508606 46.365540 0.541176
9.822430 46.365540 0.651283
10.136253 46.365540 0.779096
10.450075 46.365540 0.924659
10.763899 46.365540 1.053079
11.077723 46.365540 1.187388
11.391544 46.365540 1.318389
11.705368 46.365540 1.422674
12.019190 46.365540 1.504639
12.333014 46.365540 1.566455
12.646837 46.365540 1.616805
12.960659 46.365540 1.654555
13.274483 46.365540 1.677367
13.588306 46.365540 1.699668
13.902128 46.365540 1.708022
14.215952 46.365540 1.692615
14.529776 46.365540 1.658457
14.843597 46.365540 1.624247
15.157421 46.365540 1.586589
15.471243 46.365540 1.534848
15.785067 46.365540 1.473153
16.098890 46.365540 1.406031
16.412712 46.365540 1.340449
16.726536 46.365540 1.265589
17.040359 46.365540 1.198652
17.354181 46.365540 1.147610
17.668005 46.365540 1.135223
17.981829 46.365540 1.154402
18.295650 46.365540 1.194245
18.609474 46.365540 1.279365
18.923298 46.365540 1.393391
19.237120 46.365540 0.000000
-6.810190 46.051716 0.000000
-6.496367 46.051716 0.000000
-6.182544 46.051716 0.180637
-5.868721 46.051716 0.177536
-5.554898 46.051716 0.177786
-5.241075 46.051716 0.177827
-4.927252 46.051716 0.177534
-4.613429 46.051716 0.177412
-4.299606 46.051716 0.177309
-3.985783 46.051716 0.176284
-3.671960 46.051716 0.174384
-3.358137 46.051716 0.172987
-3.044314 46.051716 0.173469
-2.730491 46.051716 0.174874
-2.416668 46.051716 0.175616
-2.102845 46.051716 0.176149
-1.789022 46.051716 0.177055
-1.475199 46.051716 0.178288
-1.161376 46.051716 0.179040
-0.847553 46.051716 0.179101
-0.533730 46.051716 0.179153
-0.219907 46.051716 0.179156
0.093916 46.051716 0.179532
0.407739 46.051716 0.180471
0.721562 46.051716 0.180507
1.035385 46.051716 0.179879
1.349208 46.051716 0.179253
1.663032 46.051716 0.178971
1.976854 46.051716 0.179808
2.290677 46.051716 0.181115
2.604500 46.051716 0.182856
2.918324 46.051716 0.184620
3.232146 46.051716 0.186622
3.545969 46.051716 0.189026
3.859793 46.051716 0.191347
4.173615 46.051716 0.193973
4.487438 46.051716 0.197394
4.801261 46.051716 0.201538
5.115085 46.051716 0.205830
5.428907 46.051716 0.209924
5.742730 46.051716 0.214699
6.056554 46.051716 0.220436
6.370377 46.051716 0.226708
6.684199 46.051716 0.233808
6.998022 46.051716 0.242490
7.311846 46.051716 0.253865
7.625669 46.051716 0.268006
7.939491 46.051716 0.284086
8.253315 46.051716 0.306153
8.567138 46.051716 0.335298
8.880960 46.051716 0.377897
9.194784 46.051716 0.451856
9.508606 46.051716 0.546654
9.822430 46.051716 0.657069
10.136253 46.051716 0.786835
10.450075 46.051716 0.925847
10.763899 46.051716 1.053844
11.077723 46.051716 1.192379
11.391544 46.051716 1.315114
11.705368 46.051716 1.429422
12.019190 46.051716 1.507991
12.333014 46.051716 1.572851
12.646837 46.051716 1.622715
12.960659 46.051716 1.664509
13.274483 46.051716 1.684105
13.588306 46.051716 1.702347
13.902128 46.051716 1.714400
14.215952 46.051716 1.700868
14.529776 46.051716 1.666260
14.843597 46.051716 1.630046
15.157421 46.051716 1.588745
15.471243 46.051716 1.538653
15.785067 46.051716 1.478459
16.098890 46.051716 1.410592
16.412712 46.051716 1.341977
16.726536 46.051716 1.268589
17.040359 46.051716 1.203233
17.354181 46.051716 1.154992
17.668005 46.051716 1.138312
17.981829 46.051716 1.154396
18.295650 46.051716 1.198807
18.609474 46.051716 1.277935
18.923298 46.051716 1.393092
19.237120 46.051716 0.000000
-6.810190 45.737896 0.000000
-6.496367 45.737896 0.000000
-6.182544 45.737896 0.179904
-5.868721 45.737896 0.176675
-5.554898 45.737896 0.177182
-5.241075 45.737896 0.178202
-4.927252 45.737896 0.178372
-4.613429 45.737896 0.178288
-4.299606 45.737896 0.178198
-3.985783 45.737896 0.176979
-3.671960 45.737896 0.174763
-3.358137 45.737896 0.172935
-3.044314 45.737896 0.172640
-2.730491 45.737896 0.173275
-2.416668 45.737896 0.173902
-2.102845 45.737896 0.174734
-1.789022 45.737896 0.176131
-1.475199 45.737896 0.177913
-1.161376 45.737896 0.178764
-0.847553 45.737896 0.178861
-0.533730 45.737896 0.179492
-0.219907 45.737896 0.179885
0.093916 45.737896 0.180244
0.407739 45.737896 0.180988
0.721562 45.737896 0.181292
1.035385 45.737896 0.180560
1.349208 45.737896 0.179596
1.663032 45.737896 0.178753
1.976854 45.737896 0.179036
2.290677 45.737896 0.180186
2.604500 45.737896 0.181892
2.918324 45.737896 0.183170
3.232146 45.737896 0.184545
3.545969 45.737896 0.187008
3.859793 45.737896 0.189664
4.173615 45.737896 0.192870
4.487438 45.737896 0.196584
4.801261 45.737896 0.201016
5.115085 45.737896 0.205642
5.428907 45.737896 0.209874
5.742730 45.737896 0.214972
6.056554 45.737896 0.221037
6.370377 45.737896 0.227111
6.684199 45.737896 0.234757
6.998022 45.737896 0.243546
7.311846 45.737896 0.254677
7.625669 45.737896 0.268198
7.939491 45.737896 0.284511
8.253315 45.737896 0.306437
8.567138 45.737896 0.336220
8.880960 45.737896 0.381017
9.194784 45.737896 0.446625
9.508606 45.737896 0.535746
9.822430 45.737896 0.652968
10.136253 45.737896 0.781891
10.450075 45.737896 0.923300
10.763899 45.737896 1.061934
11.077723 45.737896 1.194628
11.391544 45.737896 1.319041
11.705368 45.737896 1.429759
12.019190 45.737896 1.514371
12.333014 45.737896 1.582551
12.646837 45.737896 1.633054
12.960659 45.737896 1.671372
13.274483 45.737896 1.693955
13.588306 45.737896 1.710782
13.902128 45.737896 1.720102
14.215952 45.737896 1.708797
14.529776 45.737896 1.680335
14.843597 45.737896 1.641102
15.157421 45.737896 1.594283
15.471243 45.737896 1.543272
15.785067 45.737896 1.479821
16.098890 45.737896 1.415770
16.412712 45.737896 1.343600
16.726536 45.737896 1.274749
17.040359 45.737896 1.210241
17.354181 45.737896 1.157907
17.668005 45.737896 1.139442
17.981829 45.737896 1.158731
18.295650 45.737896 1.205898
18.609474 45.737896 1.283370
18.923298 45.737896 1.391196
19.237120 45.737896 0.000000
-6.810190 45.424072 0.000000
-6.496367 45.424072 0.000000
-6.182544 45.424072 0.179399
-5.868721 45.424072 0.175776
-5.554898 45.424072 0.176490
-5.241075 45.424072 0.177832
-4.927252 45.424072 0.178256
-4.613429 45.424072 0.178487
-4.299606 45.424072 0.178688
-3.985783 45.424072 0.177611
-3.671960 45.424072 0.175636
-3.358137 45.424072 0.173752
-3.044314 45.424072 0.172943
-2.730491 45.424072 0.172695
-2.416668 45.424072 0.172798
-2.102845 45.424072 0.173505
-1.789022 45.424072 0.174957
-1.475199 45.424072 0.176831
-1.161376 45.424072 0.177533
-0.847553 45.424072 0.177686
-0.533730 45.424072 0.178796
-0.219907 45.424072 0.179933
0.093916 45.424072 0.180456
0.407739 45.424072 0.181273
0.721562 45.424072 0.181940
1.035385 45.424072 0.181274
1.349208 45.424072 0.180239
1.663032 45.424072 0.179258
1.976854 45.424072 0.179034
2.290677 45.424072 0.180246
2.604500 45.424072 0.181770
2.918324 45.424072 0.182428
3.232146 45.424072 0.182976
3.545969 45.424072 0.184820
3.859793 45.424072 0.187745
4.173615 45.424072 0.191396
4.487438 45.424072 0.195292
4.801261 45.424072 0.199815
5.115085 45.424072 0.204725
5.428907 45.424072 0.209309
5.742730 45.424072 0.214841
6.056554 45.424072 0.221344
6.370377 45.424072 0.228269
6.684199 45.424072 0.235703
6.998022 45.424072 0.244877
7.311846 45.424072 0.255951
7.625669 45.424072 0.270409
7.939491 45.424072 0.286154
8.253315 45.424072 0.305538
8.567138 45.424072 0.334740
8.880960 45.424072 0.381137
9.194784 45.424072 0.444993
9.508606 45.424072 0.532733
9.822430 45.424072 0.653737
10.136253 45.424072 0.785830
10.450075 45.424072 0.929560
10.763899 45.424072 1.063489
11.077723 45.424072 1.197274
11.391544 45.424072 1.319792
11.705368 45.424072 1.430212
12.019190 45.424072 1.517606
12.333014 45.424072 1.587457
12.646837 45.424072 1.635302
12.960659 45.424072 1.675272
13.274483 45.424072 1.699498
13.588306 45.424072 1.720400
13.902128 45.424072 1.725032
14.215952 45.424072 1.717484
14.529776 45.424072 1.685780
14.843597 45.424072 1.647772
15.157421 45.424072 1.600488
15.471243 45.424072 1.547886
15.785067 45.424072 1.482111
16.098890 45.424072 1.415414
16.412712 45.424072 1.345029
16.726536 45.424072 1.277837
17.040359 45.424072 1.208941
17.354181 45.424072 1.163249
17.668005 45.424072 1.135536
17.981829 45.424072 1.157189
18.295650 45.424072 1.209420
18.609474 45.424072 1.285534
18.923298 45.424072 1.386770
19.237120 45.424072 0.000000
-6.810190 45.110249 0.000000
-6.496367 45.110249 0.000000
-6.182544 45.110249 0.179060
-5.868721 45.110249 0.175154
-5.554898 45.110249 0.175730
-5.241075 45.110249 0.176901
-4.927252 45.110249 0.177359
-4.613429 45.110249 0.178026
-4.299606 45.110249 0.178661
-3.985783 45.110249 0.177984
-3.671960 45.110249 0.176730
-3.358137 45.110249 0.175457
-3.044314 45.110249 0.174474
-2.730491 45.110249 0.173376
-2.416668 45.110249 0.172804
-2.102845 45.110249 0.172993
-1.789022 45.110249 0.174030
-1.475199 45.110249 0.175342
-1.161376 45.110249 0.175664
-0.847553 45.110249 0.175930
-0.533730 45.110249 0.177487
-0.219907 45.110249 0.179106
0.093916 45.110249 0.179891
0.407739 45.110249 0.180915
0.721562 45.110249 0.182116
1.035385 45.110249 0.181900
1.349208 45.110249 0.181136
1.663032 45.110249 0.180241
1.976854 45.110249 0.180008
2.290677 45.110249 0.181116
2.604500 45.110249 0.182369
2.918324 45.110249 0.182527
3.232146 45.110249 0.182328
3.545969 45.110249 0.183373
3.859793 45.110249 0.186120
4.173615 45.110249 0.189614
4.487438 45.110249 0.193468
4.801261 45.110249 0.197686
5.115085 45.110249 0.202752
5.428907 45.110249 0.207895
5.742730 45.110249 0.214025
6.056554 45.110249 0.221027
6.370377 45.110249 0.228586
6.684199 45.110249 0.236797
6.998022 45.110249 0.246360
7.311846 45.110249 0.257756
7.625669 45.110249 0.270960
7.939491 45.110249 0.287302
8.253315 45.110249 0.305964
8.567138 45.110249 0.334094
8.880960 45.110249 0.377610
9.194784 45.110249 0.445149
9.508606 45.110249 0.529908
9.822430 45.110249 0.649550
10.136253 45.110249 0.778983
10.450075 45.110249 0.929978
10.763899 45.110249 1.070494
11.077723 45.110249 1.201596
11.391544 45.110249 1.318978
11.705368 45.110249 1.430844
12.019190 45.110249 1.520081
12.333014 45.110249 1.583786
12.646837 45.110249 1.635949
12.960659 45.110249 1.670255
13.274483 45.110249 1.703476
13.588306 45.110249 1.723006
13.902128 45.110249 1.723890
14.215952 45.110249 1.713814
14.529776 45.110249 1.684975
14.843597 45.110249 1.650701
15.157421 45.110249 1.605361
15.471243 45.110249 1.554264
15.785067 45.110249 1.488306
16.098890 45.110249 1.417490
16.412712 45.110249 1.347140
16.726536 45.110249 1.274038
17.040359 45.110249 1.208593
17.354181 45.110249 1.156419
17.668005 45.110249 1.138723
17.981829 45.110249 1.158301
18.295650 45.110249 1.214365
18.609474 45.110249 1.290275
18.923298 45.110249 1.389759
19.237120 45.110249 0.000000
-6.810190 44.796425 0.000000