TITLE = "B00014"
VARIABLES = "x", "y", "Reynold stress ZZ"
ZONE T="Frame 1" I=84, J=163, F=POINT
-6.810190 48.562302 0.000000
-6.496367 48.562302 0.000000
-6.182544 48.562302 0.000000
-5.868721 48.562302 0.000000
-5.554898 48.562302 0.000000
-5.241075 48.562302 0.000000
-4.927252 48.562302 0.000000
-4.613429 48.562302 0.000000
-4.299606 48.562302 0.000000
-3.985783 48.562302 0.000000
-3.671960 48.562302 0.000000
-3.358137 48.562302 0.000000
-3.044314 48.562302 0.000000
-2.730491 48.562302 0.000000
-2.416668 48.562302 0.000000
-2.102845 48.562302 0.000000
-1.789022 48.562302 0.000000
-1.475199 48.562302 0.000000
-1.161376 48.562302 0.000000
-0.847553 48.562302 0.000000
-0.533730 48.562302 0.000000
-0.219907 48.562302 0.000000
0.093916 48.562302 0.000000
0.407739 48.562302 0.000000
0.721562 48.562302 0.000000
1.035385 48.562302 0.000000
1.349208 48.562302 0.000000
1.663032 48.562302 0.000000
1.976854 48.562302 0.000000
2.290677 48.562302 0.000000
2.604500 48.562302 0.000000
2.918324 48.562302 0.000000
3.232146 48.562302 0.000000
3.545969 48.562302 0.000000
3.859793 48.562302 0.000000
4.173615 48.562302 0.000000
4.487438 48.562302 0.000000
4.801261 48.562302 0.000000
5.115085 48.562302 0.000000
5.428907 48.562302 0.000000
5.742730 48.562302 0.000000
6.056554 48.562302 0.000000
6.370377 48.562302 0.000000
6.684199 48.562302 0.000000
6.998022 48.562302 0.000000
7.311846 48.562302 0.000000
7.625669 48.562302 0.000000
7.939491 48.562302 0.000000
8.253315 48.562302 0.000000
8.567138 48.562302 0.000000
8.880960 48.562302 0.000000
9.194784 48.562302 0.000000
9.508606 48.562302 0.000000
9.822430 48.562302 0.000000
10.136253 48.562302 0.000000
10.450075 48.562302 0.000000
10.763899 48.562302 0.000000
11.077723 48.562302 0.000000
11.391544 48.562302 0.000000
11.705368 48.562302 0.000000
12.019190 48.562302 0.000000
12.333014 48.562302 0.000000
12.646837 48.562302 0.000000
12.960659 48.562302 0.000000
13.274483 48.562302 0.000000
13.588306 48.562302 0.000000
13.902128 48.562302 0.000000
14.215952 48.562302 0.000000
14.529776 48.562302 0.000000
14.843597 48.562302 0.000000
15.157421 48.562302 0.000000
15.471243 48.562302 0.000000
15.785067 48.562302 0.000000
16.098890 48.562302 0.000000
16.412712 48.562302 0.000000
16.726536 48.562302 0.000000
17.040359 48.562302 0.000000
17.354181 48.562302 0.000000
17.668005 48.562302 0.000000
17.981829 48.562302 0.000000
18.295650 48.562302 0.000000
18.609474 48.562302 0.000000
18.923298 48.562302 0.000000
19.237120 48.562302 0.000000
-6.810190 48.248478 0.000000
-6.496367 48.248478 0.000000
-6.182544 48.248478 0.000000
-5.868721 48.248478 0.000000
-5.554898 48.248478 0.000000
-5.241075 48.248478 0.000000
-4.927252 48.248478 0.000000
-4.613429 48.248478 0.000000
-4.299606 48.248478 0.000000
-3.985783 48.248478 0.000000
-3.671960 48.248478 0.000000
-3.358137 48.248478 0.000000
-3.044314 48.248478 0.000000
-2.730491 48.248478 0.000000
-2.416668 48.248478 0.000000
-2.102845 48.248478 0.000000
-1.789022 48.248478 0.000000
-1.475199 48.248478 0.000000
-1.161376 48.248478 0.000000
-0.847553 48.248478 0.000000
-0.533730 48.248478 0.000000
-0.219907 48.248478 0.000000
0.093916 48.248478 0.000000
0.407739 48.248478 0.000000
0.721562 48.248478 0.000000
1.035385 48.248478 0.000000
1.349208 48.248478 0.000000
1.663032 48.248478 0.000000
1.976854 48.248478 0.000000
2.290677 48.248478 0.000000
2.604500 48.248478 0.000000
2.918324 48.248478 0.000000
3.232146 48.248478 0.000000
3.545969 48.248478 0.000000
3.859793 48.248478 0.000000
4.173615 48.248478 0.000000
4.487438 48.248478 0.000000
4.801261 48.248478 0.000000
5.115085 48.248478 0.000000
5.428907 48.248478 0.000000
5.742730 48.248478 0.000000
6.056554 48.248478 0.000000
6.370377 48.248478 0.000000
6.684199 48.248478 0.000000
6.998022 48.248478 0.000000
7.311846 48.248478 0.000000
7.625669 48.248478 0.000000
7.939491 48.248478 0.000000
8.253315 48.248478 0.000000
8.567138 48.248478 0.000000
8.880960 48.248478 0.000000
9.194784 48.248478 0.000000
9.508606 48.248478 0.000000
9.822430 48.248478 0.000000
10.136253 48.248478 0.000000
10.450075 48.248478 0.000000
10.763899 48.248478 0.000000
11.077723 48.248478 0.000000
11.391544 48.248478 0.000000
11.705368 48.248478 0.000000
12.019190 48.248478 0.000000
12.333014 48.248478 0.000000
12.646837 48.248478 0.000000
12.960659 48.248478 0.000000
13.274483 48.248478 0.000000
13.588306 48.248478 0.000000
13.902128 48.248478 0.000000
14.215952 48.248478 0.000000
14.529776 48.248478 0.000000
14.843597 48.248478 0.000000
15.157421 48.248478 0.000000
15.471243 48.248478 0.000000
15.785067 48.248478 0.000000
16.098890 48.248478 0.000000
16.412712 48.248478 0.000000
16.726536 48.248478 0.000000
17.040359 48.248478 0.000000
17.354181 48.248478 0.000000
17.668005 48.248478 0.000000
17.981829 48.248478 0.000000
18.295650 48.248478 0.000000
18.609474 48.248478 0.000000
18.923298 48.248478 0.000000
19.237120 48.248478 0.000000
-6.810190 47.934654 0.000000
-6.496367 47.934654 0.000000
-6.182544 47.934654 0.000000
-5.868721 47.934654 0.000000
-5.554898 47.934654 0.000000
-5.241075 47.934654 0.000000
-4.927252 47.934654 0.000000
-4.613429 47.934654 0.000000
-4.299606 47.934654 0.000000
-3.985783 47.934654 0.000000
-3.671960 47.934654 0.000000
-3.358137 47.934654 0.000000
-3.044314 47.934654 0.000000
-2.730491 47.934654 0.000000
-2.416668 47.934654 0.000000
-2.102845 47.934654 0.000000
-1.789022 47.934654 0.000000
-1.475199 47.934654 0.000000
-1.161376 47.934654 0.000000
-0.847553 47.934654 0.000000
-0.533730 47.934654 0.000000
-0.219907 47.934654 0.000000
0.093916 47.934654 0.000000
0.407739 47.934654 0.000000
0.721562 47.934654 0.000000
1.035385 47.934654 0.000000
1.349208 47.934654 0.000000
1.663032 47.934654 0.000000
1.976854 47.934654 0.000000
2.290677 47.934654 0.000000
2.604500 47.934654 0.000000
2.918324 47.934654 0.000000
3.232146 47.934654 0.000000
3.545969 47.934654 0.000000
3.859793 47.934654 0.000000
4.173615 47.934654 0.000000
4.487438 47.934654 0.000000
4.801261 47.934654 0.000000
5.115085 47.934654 0.000000
5.428907 47.934654 0.000000
5.742730 47.934654 0.000000
6.056554 47.934654 0.000000
6.370377 47.934654 0.000000
6.684199 47.934654 0.000000
6.998022 47.934654 0.000000
7.311846 47.934654 0.000000
7.625669 47.934654 0.000000
7.939491 47.934654 0.000000
8.253315 47.934654 0.000000
8.567138 47.934654 0.000000
8.880960 47.934654 0.000000
9.194784 47.934654 0.000000
9.508606 47.934654 0.000000
9.822430 47.934654 0.000000
10.136253 47.934654 0.889976
10.450075 47.934654 4.856983
10.763899 47.934654 1.499429
11.077723 47.934654 3.183048
11.391544 47.934654 5.782471
11.705368 47.934654 5.885363
12.019190 47.934654 5.023099
12.333014 47.934654 3.609685
12.646837 47.934654 3.548002
12.960659 47.934654 3.665748
13.274483 47.934654 4.045581
13.588306 47.934654 3.042317
13.902128 47.934654 3.021713
14.215952 47.934654 2.731999
14.529776 47.934654 2.405644
14.843597 47.934654 2.279221
15.157421 47.934654 2.070337
15.471243 47.934654 1.925594
15.785067 47.934654 1.774960
16.098890 47.934654 1.573132
16.412712 47.934654 1.561402
16.726536 47.934654 1.551077
17.040359 47.934654 1.538780
17.354181 47.934654 1.368469
17.668005 47.934654 1.399943
17.981829 47.934654 1.466243
18.295650 47.934654 1.522280
18.609474 47.934654 1.521876
18.923298 47.934654 1.558793
19.237120 47.934654 0.000000
-6.810190 47.620834 0.000000
-6.496367 47.620834 0.000000
-6.182544 47.620834 0.045665
-5.868721 47.620834 0.044782
-5.554898 47.620834 0.060039
-5.241075 47.620834 0.059698
-4.927252 47.620834 0.062055
-4.613429 47.620834 0.067074
-4.299606 47.620834 0.068851
-3.985783 47.620834 0.065755
-3.671960 47.620834 0.064213
-3.358137 47.620834 0.063271
-3.044314 47.620834 0.063411
-2.730491 47.620834 0.065854
-2.416668 47.620834 0.067119
-2.102845 47.620834 0.064985
-1.789022 47.620834 0.063493
-1.475199 47.620834 0.063194
-1.161376 47.620834 0.064215
-0.847553 47.620834 0.064882
-0.533730 47.620834 0.064308
-0.219907 47.620834 0.066303
0.093916 47.620834 0.067245
0.407739 47.620834 0.064723
0.721562 47.620834 0.063244
1.035385 47.620834 0.061570
1.349208 47.620834 0.060427
1.663032 47.620834 0.060722
1.976854 47.620834 0.061550
2.290677 47.620834 0.061639
2.604500 47.620834 0.060138
2.918324 47.620834 0.061553
3.232146 47.620834 0.063119
3.545969 47.620834 0.062102
3.859793 47.620834 0.060716
4.173615 47.620834 0.060753
4.487438 47.620834 0.059074
4.801261 47.620834 0.057845
5.115085 47.620834 0.059061
5.428907 47.620834 0.060552
5.742730 47.620834 0.060776
6.056554 47.620834 0.059612
6.370377 47.620834 0.056988
6.684199 47.620834 0.057212
6.998022 47.620834 0.057961
7.311846 47.620834 0.060233
7.625669 47.620834 0.065877
7.939491 47.620834 0.070921
8.253315 47.620834 0.079442
8.567138 47.620834 0.092286
8.880960 47.620834 0.115825
9.194784 47.620834 0.154064
9.508606 47.620834 0.235586
9.822430 47.620834 0.327936
10.136253 47.620834 0.460655
10.450075 47.620834 0.602040
10.763899 47.620834 0.745390
11.077723 47.620834 0.937389
11.391544 47.620834 1.149247
11.705368 47.620834 1.380702
12.019190 47.620834 1.555158
12.333014 47.620834 1.757101
12.646837 47.620834 1.945451
12.960659 47.620834 2.053004
13.274483 47.620834 2.200587
13.588306 47.620834 2.293380
13.902128 47.620834 2.359253
14.215952 47.620834 2.395968
14.529776 47.620834 2.412904
14.843597 47.620834 2.322212
15.157421 47.620834 2.203059
15.471243 47.620834 2.078703
15.785067 47.620834 1.955817
16.098890 47.620834 1.853699
16.412712 47.620834 1.771845
16.726536 47.620834 1.707477
17.040359 47.620834 1.609430
17.354181 47.620834 1.571207
17.668005 47.620834 1.542264
17.981829 47.620834 1.553394
18.295650 47.620834 1.565918
18.609474 47.620834 1.581258
18.923298 47.620834 1.437026
19.237120 47.620834 0.000000
-6.810190 47.307011 0.000000
-6.496367 47.307011 0.000000
-6.182544 47.307011 0.034701
-5.868721 47.307011 0.045684
-5.554898 47.307011 0.045782
-5.241075 47.307011 0.044951
-4.927252 47.307011 0.045617
-4.613429 47.307011 0.048693
-4.299606 47.307011 0.050293
-3.985783 47.307011 0.048812
-3.671960 47.307011 0.047954
-3.358137 47.307011 0.046706
-3.044314 47.307011 0.046209
-2.730491 47.307011 0.047752
-2.416668 47.307011 0.048767
-2.102845 47.307011 0.047626
-1.789022 47.307011 0.047206
-1.475199 47.307011 0.046756
-1.161376 47.307011 0.048240
-0.847553 47.307011 0.048167
-0.533730 47.307011 0.047455
-0.219907 47.307011 0.049145
0.093916 47.307011 0.050193
0.407739 47.307011 0.048899
0.721562 47.307011 0.047853
1.035385 47.307011 0.047387
1.349208 47.307011 0.046994
1.663032 47.307011 0.046758
1.976854 47.307011 0.047393
2.290677 47.307011 0.047606
2.604500 47.307011 0.046822
2.918324 47.307011 0.047224
3.232146 47.307011 0.048174
3.545969 47.307011 0.047248
3.859793 47.307011 0.046875
4.173615 47.307011 0.046785
4.487438 47.307011 0.045317
4.801261 47.307011 0.044148
5.115085 47.307011 0.045197
5.428907 47.307011 0.046716
5.742730 47.307011 0.046619
6.056554 47.307011 0.045410
6.370377 47.307011 0.044136
6.684199 47.307011 0.045539
6.998022 47.307011 0.046559
7.311846 47.307011 0.048912
7.625669 47.307011 0.053817
7.939491 47.307011 0.060319
8.253315 47.307011 0.069265
8.567138 47.307011 0.082635
8.880960 47.307011 0.104250
9.194784 47.307011 0.138498
9.508606 47.307011 0.193977
9.822430 47.307011 0.268367
10.136253 47.307011 0.380872
10.450075 47.307011 0.518231
10.763899 47.307011 0.650057
11.077723 47.307011 0.824119
11.391544 47.307011 0.995439
11.705368 47.307011 1.202410
12.019190 47.307011 1.382487
12.333014 47.307011 1.569938
12.646837 47.307011 1.706069
12.960659 47.307011 1.806651
13.274483 47.307011 1.977295
13.588306 47.307011 2.041252
13.902128 47.307011 2.043616
14.215952 47.307011 2.100384
14.529776 47.307011 2.104731
14.843597 47.307011 2.085315
15.157421 47.307011 1.986015
15.471243 47.307011 1.816229
15.785067 47.307011 1.707970
16.098890 47.307011 1.655281
16.412712 47.307011 1.534346
16.726536 47.307011 1.447439
17.040359 47.307011 1.379616
17.354181 47.307011 1.343317
17.668005 47.307011 1.337332
17.981829 47.307011 1.359803
18.295650 47.307011 1.395778
18.609474 47.307011 1.544842
18.923298 47.307011 1.767983
19.237120 47.307011 0.000000
-6.810190 46.993187 0.000000
-6.496367 46.993187 0.000000
-6.182544 46.993187 0.040024
-5.868721 46.993187 0.035784
-5.554898 46.993187 0.035272
-5.241075 46.993187 0.035597
-4.927252 46.993187 0.035531
-4.613429 46.993187 0.037038
-4.299606 46.993187 0.038283
-3.985783 46.993187 0.038051
-3.671960 46.993187 0.037536
-3.358137 46.993187 0.036124
-3.044314 46.993187 0.035726
-2.730491 46.993187 0.036688
-2.416668 46.993187 0.037171
-2.102845 46.993187 0.036828
-1.789022 46.993187 0.036799
-1.475199 46.993187 0.036495
-1.161376 46.993187 0.037615
-0.847553 46.993187 0.037278
-0.533730 46.993187 0.036596
-0.219907 46.993187 0.037544
0.093916 46.993187 0.038659
0.407739 46.993187 0.037474
0.721562 46.993187 0.036527
1.035385 46.993187 0.036536
1.349208 46.993187 0.036462
1.663032 46.993187 0.036001
1.976854 46.993187 0.036004
2.290677 46.993187 0.036037
2.604500 46.993187 0.035816
2.918324 46.993187 0.035949
3.232146 46.993187 0.036336
3.545969 46.993187 0.035836
3.859793 46.993187 0.035977
4.173615 46.993187 0.036204
4.487438 46.993187 0.035050
4.801261 46.993187 0.033745
5.115085 46.993187 0.034311
5.428907 46.993187 0.035655
5.742730 46.993187 0.035227
6.056554 46.993187 0.034299
6.370377 46.993187 0.034325
6.684199 46.993187 0.035860
6.998022 46.993187 0.037026
7.311846 46.993187 0.039082
7.625669 46.993187 0.042439
7.939491 46.993187 0.047887
8.253315 46.993187 0.056712
8.567138 46.993187 0.069554
8.880960 46.993187 0.088041
9.194784 46.993187 0.116309
9.508606 46.993187 0.164008
9.822430 46.993187 0.227491
10.136253 46.993187 0.311380
10.450075 46.993187 0.432518
10.763899 46.993187 0.568385
11.077723 46.993187 0.732136
11.391544 46.993187 0.887220
11.705368 46.993187 1.074136
12.019190 46.993187 1.227009
12.333014 46.993187 1.358174
12.646837 46.993187 1.465276
12.960659 46.993187 1.616188
13.274483 46.993187 1.714987
13.588306 46.993187 1.780668
13.902128 46.993187 1.800932
14.215952 46.993187 1.842277
14.529776 46.993187 1.873984
14.843597 46.993187 1.871304
15.157421 46.993187 1.804709
15.471243 46.993187 1.602943
15.785067 46.993187 1.547838
16.098890 46.993187 1.463147
16.412712 46.993187 1.377427
16.726536 46.993187 1.308467
17.040359 46.993187 1.239439
17.354181 46.993187 1.178353
17.668005 46.993187 1.181877
17.981829 46.993187 1.179966
18.295650 46.993187 1.247521
18.609474 46.993187 1.443208
18.923298 46.993187 1.863442
19.237120 46.993187 0.000000
-6.810190 46.679363 0.000000
-6.496367 46.679363 0.000000
-6.182544 46.679363 0.036755
-5.868721 46.679363 0.032363
-5.554898 46.679363 0.032319
-5.241075 46.679363 0.032515
-4.927252 46.679363 0.032047
-4.613429 46.679363 0.032592
-4.299606 46.679363 0.033531
-3.985783 46.679363 0.033618
-3.671960 46.679363 0.033857
-3.358137 46.679363 0.032630
-3.044314 46.679363 0.032437
-2.730491 46.679363 0.033093
-2.416668 46.679363 0.033098
-2.102845 46.679363 0.033028
-1.789022 46.679363 0.033046
-1.475199 46.679363 0.032906
-1.161376 46.679363 0.033864
-0.847553 46.679363 0.033454
-0.533730 46.679363 0.032704
-0.219907 46.679363 0.033199
0.093916 46.679363 0.033864
0.407739 46.679363 0.032931
0.721562 46.679363 0.031984
1.035385 46.679363 0.032466
1.349208 46.679363 0.031898
1.663032 46.679363 0.031179
1.976854 46.679363 0.030926
2.290677 46.679363 0.031413
2.604500 46.679363 0.031927
2.918324 46.679363 0.031765
3.232146 46.679363 0.031845
3.545969 46.679363 0.031631
3.859793 46.679363 0.031704
4.173615 46.679363 0.031908
4.487438 46.679363 0.030989
4.801261 46.679363 0.029841
5.115085 46.679363 0.030064
5.428907 46.679363 0.031051
5.742730 46.679363 0.030714
6.056554 46.679363 0.030149
6.370377 46.679363 0.030651
6.684199 46.679363 0.032198
6.998022 46.679363 0.033444
7.311846 46.679363 0.035135
7.625669 46.679363 0.037873
7.939491 46.679363 0.042568
8.253315 46.679363 0.051200
8.567138 46.679363 0.062909
8.880960 46.679363 0.080940
9.194784 46.679363 0.107386
9.508606 46.679363 0.148772
9.822430 46.679363 0.208344
10.136253 46.679363 0.287399
10.450075 46.679363 0.396785
10.763899 46.679363 0.532127
11.077723 46.679363 0.682113
11.391544 46.679363 0.852304
11.705368 46.679363 1.009344
12.019190 46.679363 1.151042
12.333014 46.679363 1.271110
12.646837 46.679363 1.369167
12.960659 46.679363 1.467501
13.274483 46.679363 1.583951
13.588306 46.679363 1.659773
13.902128 46.679363 1.676518
14.215952 46.679363 1.701544
14.529776 46.679363 1.745933
14.843597 46.679363 1.759928
15.157421 46.679363 1.681088
15.471243 46.679363 1.569453
15.785067 46.679363 1.486810
16.098890 46.679363 1.376881
16.412712 46.679363 1.285776
16.726536 46.679363 1.226725
17.040359 46.679363 1.173340
17.354181 46.679363 1.136014
17.668005 46.679363 1.115643
17.981829 46.679363 1.133152
18.295650 46.679363 1.179173
18.609474 46.679363 1.426864
18.923298 46.679363 1.921563
19.237120 46.679363 0.000000
-6.810190 46.365540 0.000000
-6.496367 46.365540 0.000000
-6.182544 46.365540 0.036809
-5.868721 46.365540 0.032850
-5.554898 46.365540 0.032753
-5.241075 46.365540 0.032638
-4.927252 46.365540 0.031836
-4.613429 46.365540 0.031909
-4.299606 46.365540 0.032438
-3.985783 46.365540 0.032649
-3.671960 46.365540 0.032646
-3.358137 46.365540 0.032369
-3.044314 46.365540 0.032148
-2.730491 46.365540 0.032984
-2.416668 46.365540 0.032616
-2.102845 46.365540 0.032804
-1.789022 46.365540 0.032946
-1.475199 46.365540 0.033085
-1.161376 46.365540 0.033422
-0.847553 46.365540 0.032874
-0.533730 46.365540 0.032328
-0.219907 46.365540 0.032330
0.093916 46.365540 0.032450
0.407739 46.365540 0.031910
0.721562 46.365540 0.031593
1.035385 46.365540 0.031674
1.349208 46.365540 0.030870
1.663032 46.365540 0.029990
1.976854 46.365540 0.030018
2.290677 46.365540 0.030679
2.604500 46.365540 0.031180
2.918324 46.365540 0.031178
3.232146 46.365540 0.031325
3.545969 46.365540 0.031037
3.859793 46.365540 0.030755
4.173615 46.365540 0.030855
4.487438 46.365540 0.030190
4.801261 46.365540 0.029508
5.115085 46.365540 0.029413
5.428907 46.365540 0.029904
5.742730 46.365540 0.029581
6.056554 46.365540 0.029647
6.370377 46.365540 0.029880
6.684199 46.365540 0.030950
6.998022 46.365540 0.032733
7.311846 46.365540 0.034235
7.625669 46.365540 0.036579
7.939491 46.365540 0.040478
8.253315 46.365540 0.049161
8.567138 46.365540 0.059721
8.880960 46.365540 0.077459
9.194784 46.365540 0.104786
9.508606 46.365540 0.142234
9.822430 46.365540 0.197158
10.136253 46.365540 0.283935
10.450075 46.365540 0.397202
10.763899 46.365540 0.523929
11.077723 46.365540 0.672362
11.391544 46.365540 0.845935
11.705368 46.365540 0.980259
12.019190 46.365540 1.112946
12.333014 46.365540 1.230659
12.646837 46.365540 1.329383
12.960659 46.365540 1.424734
13.274483 46.365540 1.578518
13.588306 46.365540 1.652939
13.902128 46.365540 1.669414
14.215952 46.365540 1.689217
14.529776 46.365540 1.701519
14.843597 46.365540 1.730610
15.157421 46.365540 1.694677
15.471243 46.365540 1.571604
15.785067 46.365540 1.472448
16.098890 46.365540 1.399309
16.412712 46.365540 1.271727
16.726536 46.365540 1.197830
17.040359 46.365540 1.162704
17.354181 46.365540 1.101464
17.668005 46.365540 1.104746
17.981829 46.365540 1.116280
18.295650 46.365540 1.162474
18.609474 46.365540 1.369504
18.923298 46.365540 1.877640
19.237120 46.365540 0.000000
-6.810190 46.051716 0.000000
-6.496367 46.051716 0.000000
-6.182544 46.051716 0.037426
-5.868721 46.051716 0.033935
-5.554898 46.051716 0.033967
-5.241075 46.051716 0.033462
-4.927252 46.051716 0.032408
-4.613429 46.051716 0.032429
-4.299606 46.051716 0.032481
-3.985783 46.051716 0.032363
-3.671960 46.051716 0.032287
-3.358137 46.051716 0.032428
-3.044314 46.051716 0.032191
-2.730491 46.051716 0.032530
-2.416668 46.051716 0.032445
-2.102845 46.051716 0.032680
-1.789022 46.051716 0.033175
-1.475199 46.051716 0.033756
-1.161376 46.051716 0.033805
-0.847553 46.051716 0.033116
-0.533730 46.051716 0.032694
-0.219907 46.051716 0.032038
0.093916 46.051716 0.031630
0.407739 46.051716 0.031400
0.721562 46.051716 0.031504
1.035385 46.051716 0.031362
1.349208 46.051716 0.030903
1.663032 46.051716 0.030220
1.976854 46.051716 0.030437
2.290677 46.051716 0.030622
2.604500 46.051716 0.030635
2.918324 46.051716 0.030914
3.232146 46.051716 0.031444
3.545969 46.051716 0.031038
3.859793 46.051716 0.030297
4.173615 46.051716 0.030518
4.487438 46.051716 0.030154
4.801261 46.051716 0.029878
5.115085 46.051716 0.030025
5.428907 46.051716 0.029640
5.742730 46.051716 0.029192
6.056554 46.051716 0.029672
6.370377 46.051716 0.029370
6.684199 46.051716 0.030343
6.998022 46.051716 0.032207
7.311846 46.051716 0.034513
7.625669 46.051716 0.036735
7.939491 46.051716 0.040214
8.253315 46.051716 0.048452
8.567138 46.051716 0.058263
8.880960 46.051716 0.075371
9.194784 46.051716 0.105283
9.508606 46.051716 0.143564
9.822430 46.051716 0.196707
10.136253 46.051716 0.283935
10.450075 46.051716 0.394358
10.763899 46.051716 0.524254
11.077723 46.051716 0.665566
11.391544 46.051716 0.827451
11.705368 46.051716 0.985259
12.019190 46.051716 1.109187
12.333014 46.051716 1.208149
12.646837 46.051716 1.325826
12.960659 46.051716 1.447570
13.274483 46.051716 1.574039
13.588306 46.051716 1.628278
13.902128 46.051716 1.648749
14.215952 46.051716 1.679864
14.529776 46.051716 1.684559
14.843597 46.051716 1.678629
15.157421 46.051716 1.668262
15.471243 46.051716 1.554924
15.785067 46.051716 1.452967
16.098890 46.051716 1.361389
16.412712 46.051716 1.259470
16.726536 46.051716 1.211176
17.040359 46.051716 1.145160
17.354181 46.051716 1.087990
17.668005 46.051716 1.101637
17.981829 46.051716 1.119160
18.295650 46.051716 1.166475
18.609474 46.051716 1.343291
18.923298 46.051716 1.845527
19.237120 46.051716 0.000000
-6.810190 45.737896 0.000000
-6.496367 45.737896 0.000000
-6.182544 45.737896 0.036493
-5.868721 45.737896 0.033728
-5.554898 45.737896 0.034201
-5.241075 45.737896 0.034168
-4.927252 45.737896 0.032977
-4.613429 45.737896 0.032854
-4.299606 45.737896 0.032960
-3.985783 45.737896 0.032371
-3.671960 45.737896 0.032027
-3.358137 45.737896 0.032153
-3.044314 45.737896 0.032105
-2.730491 45.737896 0.032036
-2.416668 45.737896 0.031815
-2.102845 45.737896 0.032223
-1.789022 45.737896 0.032957
-1.475199 45.737896 0.033883
-1.161376 45.737896 0.033969
-0.847553 45.737896 0.033391
-0.533730 45.737896 0.032857
-0.219907 45.737896 0.031973
0.093916 45.737896 0.031514
0.407739 45.737896 0.031226
0.721562 45.737896 0.031273
1.035385 45.737896 0.030957
1.349208 45.737896 0.030756
1.663032 45.737896 0.030458
1.976854 45.737896 0.030228
2.290677 45.737896 0.029824
2.604500 45.737896 0.029352
2.918324 45.737896 0.029911
3.232146 45.737896 0.030741
3.545969 45.737896 0.030444
3.859793 45.737896 0.029614
4.173615 45.737896 0.029884
4.487438 45.737896 0.029636
4.801261 45.737896 0.029817
5.115085 45.737896 0.030125
5.428907 45.737896 0.029388
5.742730 45.737896 0.028592
6.056554 45.737896 0.028952
6.370377 45.737896 0.028663
6.684199 45.737896 0.029647
6.998022 45.737896 0.031671
7.311846 45.737896 0.034066
7.625669 45.737896 0.036641
7.939491 45.737896 0.039534
8.253315 45.737896 0.046823
8.567138 45.737896 0.057414
8.880960 45.737896 0.073969
9.194784 45.737896 0.103746
9.508606 45.737896 0.141728
9.822430 45.737896 0.200423
10.136253 45.737896 0.282718
10.450075 45.737896 0.390579
10.763899 45.737896 0.510585
11.077723 45.737896 0.642579
11.391544 45.737896 0.802549
11.705368 45.737896 0.978600
12.019190 45.737896 1.104527
12.333014 45.737896 1.203241
12.646837 45.737896 1.324450
12.960659 45.737896 1.462780
13.274483 45.737896 1.550514
13.588306 45.737896 1.618595
13.902128 45.737896 1.667855
14.215952 45.737896 1.664310
14.529776 45.737896 1.669767
14.843597 45.737896 1.639210
15.157421 45.737896 1.647609
15.471243 45.737896 1.544739
15.785067 45.737896 1.441084
16.098890 45.737896 1.338702
16.412712 45.737896 1.242124
16.726536 45.737896 1.188249
17.040359 45.737896 1.134355
17.354181 45.737896 1.098480
17.668005 45.737896 1.114752
17.981829 45.737896 1.105069
18.295650 45.737896 1.148097
18.609474 45.737896 1.342201
18.923298 45.737896 1.804664
19.237120 45.737896 0.000000
-6.810190 45.424072 0.000000
-6.496367 45.424072 0.000000
-6.182544 45.424072 0.036041
-5.868721 45.424072 0.032984
-5.554898 45.424072 0.033612
-5.241075 45.424072 0.034028
-4.927252 45.424072 0.032839
-4.613429 45.424072 0.033176
-4.299606 45.424072 0.033338
-3.985783 45.424072 0.032786
-3.671960 45.424072 0.032252
-3.358137 45.424072 0.031881
-3.044314 45.424072 0.032279
-2.730491 45.424072 0.032251
-2.416668 45.424072 0.031883
-2.102845 45.424072 0.031920
-1.789022 45.424072 0.032426
-1.475199 45.424072 0.032899
-1.161376 45.424072 0.033132
-0.847553 45.424072 0.032752
-0.533730 45.424072 0.032694
-0.219907 45.424072 0.032817
0.093916 45.424072 0.032447
0.407739 45.424072 0.031556
0.721562 45.424072 0.031269
1.035385 45.424072 0.030817
1.349208 45.424072 0.030771
1.663032 45.424072 0.030629
1.976854 45.424072 0.029735
2.290677 45.424072 0.029156
2.604500 45.424072 0.028630
2.918324 45.424072 0.029202
3.232146 45.424072 0.030098
3.545969 45.424072 0.029754
3.859793 45.424072 0.028961
4.173615 45.424072 0.028732
4.487438 45.424072 0.028767
4.801261 45.424072 0.028963
5.115085 45.424072 0.029621
5.428907 45.424072 0.029413
5.742730 45.424072 0.028197
6.056554 45.424072 0.028109
6.370377 45.424072 0.028214
6.684199 45.424072 0.029728
6.998022 45.424072 0.031205
7.311846 45.424072 0.033246
7.625669 45.424072 0.036040
7.939491 45.424072 0.039161
8.253315 45.424072 0.045616
8.567138 45.424072 0.055624
8.880960 45.424072 0.072030
9.194784 45.424072 0.100443
9.508606 45.424072 0.141142
9.822430 45.424072 0.200309
10.136253 45.424072 0.285165
10.450075 45.424072 0.384327
10.763899 45.424072 0.501490
11.077723 45.424072 0.642193
11.391544 45.424072 0.795831
11.705368 45.424072 0.961923
12.019190 45.424072 1.094332
12.333014 45.424072 1.189409
12.646837 45.424072 1.321334
12.960659 45.424072 1.459266
13.274483 45.424072 1.519302
13.588306 45.424072 1.588683
13.902128 45.424072 1.692550
14.215952 45.424072 1.689471
14.529776 45.424072 1.646424
14.843597 45.424072 1.635438
15.157421 45.424072 1.612015
15.471243 45.424072 1.534938
15.785067 45.424072 1.409848
16.098890 45.424072 1.318856
16.412712 45.424072 1.216381
16.726536 45.424072 1.152403
17.040359 45.424072 1.135600
17.354181 45.424072 1.094922
17.668005 45.424072 1.107826
17.981829 45.424072 1.092360
18.295650 45.424072 1.125517
18.609474 45.424072 1.353695
18.923298 45.424072 1.776099
19.237120 45.424072 0.000000
-6.810190 45.110249 0.000000
-6.496367 45.110249 0.000000
-6.182544 45.110249 0.036290
-5.868721 45.110249 0.032587
-5.554898 45.110249 0.032938
-5.241075 45.110249 0.033510
-4.927252 45.110249 0.032513
-4.613429 45.110249 0.033092
-4.299606 45.110249 0.033797
-3.985783 45.110249 0.033031
-3.671960 45.110249 0.032347
-3.358137 45.110249 0.031980
-3.044314 45.110249 0.032480
-2.730491 45.110249 0.032271
-2.416668 45.110249 0.031975
-2.102845 45.110249 0.031979
-1.789022 45.110249 0.031877
-1.475199 45.110249 0.031838
-1.161376 45.110249 0.031939
-0.847553 45.110249 0.032038
-0.533730 45.110249 0.032581
-0.219907 45.110249 0.033297
0.093916 45.110249 0.032874
0.407739 45.110249 0.031479
0.721562 45.110249 0.031399
1.035385 45.110249 0.030860
1.349208 45.110249 0.030490
1.663032 45.110249 0.030390
1.976854 45.110249 0.029682
2.290677 45.110249 0.029301
2.604500 45.110249 0.029044
2.918324 45.110249 0.029299
3.232146 45.110249 0.029053
3.545969 45.110249 0.029042
3.859793 45.110249 0.028471
4.173615 45.110249 0.028138
4.487438 45.110249 0.028136
4.801261 45.110249 0.027852
5.115085 45.110249 0.028645
5.428907 45.110249 0.028922
5.742730 45.110249 0.027744
6.056554 45.110249 0.027431
6.370377 45.110249 0.028110
6.684199 45.110249 0.029868
6.998022 45.110249 0.030804
7.311846 45.110249 0.032484
7.625669 45.110249 0.035060
7.939491 45.110249 0.038732
8.253315 45.110249 0.045278
8.567138 45.110249 0.054343
8.880960 45.110249 0.071628
9.194784 45.110249 0.100178
9.508606 45.110249 0.141609
9.822430 45.110249 0.201968
10.136253 45.110249 0.280470
10.450075 45.110249 0.390115
10.763899 45.110249 0.506061
11.077723 45.110249 0.646197
11.391544 45.110249 0.791119
11.705368 45.110249 0.948148
12.019190 45.110249 1.109643
12.333014 45.110249 1.221259
12.646837 45.110249 1.332739
12.960659 45.110249 1.433678
13.274483 45.110249 1.499719
13.588306 45.110249 1.591546
13.902128 45.110249 1.660568
14.215952 45.110249 1.668240
14.529776 45.110249 1.651254
14.843597 45.110249 1.604172
15.157421 45.110249 1.617701
15.471243 45.110249 1.534087
15.785067 45.110249 1.415430
16.098890 45.110249 1.299252
16.412712 45.110249 1.213931
16.726536 45.110249 1.171049
17.040359 45.110249 1.124286
17.354181 45.110249 1.105314
17.668005 45.110249 1.082338
17.981829 45.110249 1.071461
18.295650 45.110249 1.139429
18.609474 45.110249 1.347311
18.923298 45.110249 1.758932
19.237120 45.110249 0.000000
-6.810190 44.796425 0.000000